<?xml version="1.0" encoding="ISO-8859-1"?>
<modeling>
 <generator>
  <i name="program" type="string">vasp</i>
  <i name="version" type="string">4.6.36 </i>
  <i name="subversion" type="string">17Feb09 complex  parallel</i>
  <i name="platform" type="string">LinuxIFC</i>
  <i name="date" type="string">2013 06 24</i>
  <i name="time" type="string">10:03:01</i>
 </generator>
 <incar>
  <i type="string" name="SYSTEM"> H2O</i>
  <i type="int" name="ISTART">     0</i>
  <i type="string" name="PREC">high</i>
  <i type="int" name="IALGO">    48</i>
  <i type="int" name="MAXMIX">    50</i>
  <i name="BMIX">      2.00000000</i>
  <i type="int" name="ICHARG">     2</i>
  <i type="int" name="NELMIN">     4</i>
  <i type="int" name="IBRION">     2</i>
  <i type="int" name="NSW">    50</i>
  <i type="int" name="ISIF">     3</i>
  <i type="int" name="ISYM">     0</i>
  <i type="int" name="KBLOCK">   100</i>
  <i name="POTIM">      0.19350400</i>
  <i name="TEBEG">    330.00000000</i>
  <i name="SMASS">      0.50000000</i>
  <i type="string" name="LREAL"> A</i>
  <i type="int" name="ISMEAR">    -1</i>
  <i name="SIGMA">      0.02843723</i>
  <i type="int" name="NWRITE">     3</i>
 </incar>
 <kpoints>
  <generation param="Monkhorst-Pack">
   <v type="int" name="divisions">       3       4       1</v>
   <v name="usershift">      0.00000000       0.00000000       0.00000000 </v>
   <v name="genvec1">      0.33333333       0.00000000       0.00000000 </v>
   <v name="genvec2">      0.00000000       0.25000000       0.00000000 </v>
   <v name="genvec3">      0.00000000       0.00000000       1.00000000 </v>
   <v name="shift">      0.00000000       0.50000000       0.00000000 </v>
  </generation>
  <varray name="kpointlist" >
   <v>       0.00000000       0.12500000       0.00000000 </v>
   <v>       0.33333333       0.12500000       0.00000000 </v>
   <v>      -0.33333333       0.12500000       0.00000000 </v>
   <v>       0.00000000       0.37500000       0.00000000 </v>
   <v>       0.33333333       0.37500000       0.00000000 </v>
   <v>      -0.33333333       0.37500000       0.00000000 </v>
  </varray>
  <varray name="weights" >
   <v>       0.16666667 </v>
   <v>       0.16666667 </v>
   <v>       0.16666667 </v>
   <v>       0.16666667 </v>
   <v>       0.16666667 </v>
   <v>       0.16666667 </v>
  </varray>
 </kpoints>
 <parameters>
  <separator name="general" >
   <i type="string" name="SYSTEM">H2O</i>
   <i type="logical" name="LCOMPAT"> F  </i>
  </separator>
  <separator name="electronic" >
   <i type="string" name="PREC">high</i>
   <i name="ENMAX">    928.08000000</i>
   <i name="ENAUG">    946.76800000</i>
   <i name="EDIFF">      0.00010000</i>
   <i type="int" name="IALGO">    48</i>
   <i type="int" name="IWAVPR">    11</i>
   <i type="int" name="NBANDS">   241</i>
   <i name="NELECT">    384.00000000</i>
   <separator name="electronic smearing" >
    <i type="int" name="ISMEAR">    -1</i>
    <i name="SIGMA">      0.02843723</i>
   </separator>
   <separator name="electronic projectors" >
    <i type="logical" name="LREAL"> T  </i>
    <v name="ROPT">     -0.00040000</v>
    <i type="int" name="LMAXPAW">  -100</i>
    <i type="int" name="LMAXMIX">     2</i>
   </separator>
   <separator name="electronic startup" >
    <i type="int" name="ISTART">     0</i>
    <i type="int" name="ICHARG">     2</i>
    <i type="int" name="INIWAV">     1</i>
   </separator>
   <separator name="electronic spin" >
    <i type="int" name="ISPIN">     1</i>
    <i type="logical" name="LNONCOLLINEAR"> F  </i>
    <v name="MAGMOM">      1.00000000      1.00000000      1.00000000      1.00000000      1.00000000      1.00000000      1.00000000      1.00000000      1.00000000      1.00000000      1.00000000      1.00000000      1.00000000      1.00000000      1.00000000      1.00000000      1.00000000      1.00000000      1.00000000      1.00000000
      1.00000000      1.00000000      1.00000000      1.00000000      1.00000000      1.00000000      1.00000000      1.00000000      1.00000000      1.00000000      1.00000000      1.00000000      1.00000000      1.00000000      1.00000000      1.00000000      1.00000000      1.00000000      1.00000000      1.00000000
      1.00000000      1.00000000      1.00000000      1.00000000      1.00000000      1.00000000      1.00000000      1.00000000      1.00000000      1.00000000      1.00000000      1.00000000      1.00000000      1.00000000      1.00000000      1.00000000      1.00000000      1.00000000      1.00000000      1.00000000
      1.00000000      1.00000000      1.00000000      1.00000000      1.00000000      1.00000000      1.00000000      1.00000000      1.00000000      1.00000000      1.00000000      1.00000000      1.00000000      1.00000000      1.00000000      1.00000000      1.00000000      1.00000000      1.00000000      1.00000000
      1.00000000      1.00000000      1.00000000      1.00000000      1.00000000      1.00000000      1.00000000      1.00000000      1.00000000      1.00000000      1.00000000      1.00000000      1.00000000      1.00000000      1.00000000      1.00000000</v>
    <i name="NUPDOWN">     -1.00000000</i>
    <i type="logical" name="LSORBIT"> F  </i>
    <v name="SAXIS">      0.00000000      0.00000000      1.00000000</v>
    <i type="logical" name="LSPIRAL"> F  </i>
    <v name="QSPIRAL">      0.00000000      0.00000000      0.00000000</v>
    <i type="logical" name="LZEROZ"> F  </i>
   </separator>
   <separator name="electronic exchange-correlation" >
    <i type="string" name="GGA">--</i>
    <i type="int" name="VOSKOWN">     0</i>
    <i type="logical" name="LASPH"> F  </i>
    <i type="logical" name="LMETAGGA"> F  </i>
    <i type="string" name="GGA2">--</i>
   </separator>
   <separator name="electronic convergence" >
    <i type="int" name="NELM">    60</i>
    <i type="int" name="NELMDL">   -12</i>
    <i type="int" name="NELMIN">     4</i>
    <i name="ENINI">    928.08000000</i>
    <separator name="electronic convergence detail" >
     <i type="logical" name="LDIAG"> T  </i>
     <i name="WEIMIN">      0.00100000</i>
     <i name="EBREAK">      0.00000010</i>
     <i name="DEPER">      0.30000000</i>
     <i type="int" name="NRMM">     4</i>
     <i name="TIME">      0.10000000</i>
    </separator>
   </separator>
   <separator name="electronic mixer" >
    <i name="AMIX">      0.40000000</i>
    <i name="BMIX">      2.00000000</i>
    <i name="AMIN">      0.10000000</i>
    <i name="AMIX_MAG">      1.60000000</i>
    <i name="BMIX_MAG">      2.00000000</i>
    <separator name="electronic mixer details" >
     <i type="int" name="IMIX">     4</i>
     <i type="int" name="MAXMIX">    50</i>
     <i name="WC">    100.00000000</i>
     <i type="int" name="INIMIX">     1</i>
     <i type="int" name="MIXPRE">     1</i>
     <i type="int" name="MREMOVE">     5</i>
    </separator>
   </separator>
   <separator name="electronic dipolcorrection" >
    <i type="int" name="IDIPOL">     0</i>
    <i type="logical" name="LDIPOL"> F  </i>
    <v name="DIPOL">   -100.00000000</v>
    <i name="EFIELD">      0.00000000</i>
   </separator>
  </separator>
  <separator name="grids" >
   <i type="int" name="NGX">    80</i>
   <i type="int" name="NGY">    84</i>
   <i type="int" name="NGZ">   240</i>
   <i type="int" name="NGXF">    98</i>
   <i type="int" name="NGYF">   120</i>
   <i type="int" name="NGZF">   320</i>
   <i type="logical" name="ADDGRID"> F  </i>
  </separator>
  <separator name="ionic" >
   <i type="int" name="NSW">    50</i>
   <i type="int" name="IBRION">     2</i>
   <i type="int" name="ISIF">     3</i>
   <i name="PSTRESS">      0.00000000</i>
   <i name="EDIFFG">      0.00100000</i>
   <i type="int" name="NFREE">     1</i>
   <i name="POTIM">      0.19350400</i>
   <i name="SMASS">      0.50000000</i>
  </separator>
  <separator name="ionic md" >
   <i name="TEBEG">    330.00000000</i>
   <i name="TEEND">    330.00000000</i>
   <i type="int" name="NBLOCK">     1</i>
   <i type="int" name="KBLOCK">     1</i>
   <i type="int" name="NPACO">   256</i>
   <i name="APACO">     16.00000000</i>
  </separator>
  <separator name="symmetry" >
   <i type="int" name="ISYM">     0</i>
   <i name="SYMPREC">      0.00001000</i>
  </separator>
  <separator name="dos" >
   <i type="logical" name="LORBIT"> T  </i>
   <v name="RWIGS">     -1.00000000</v>
   <i type="int" name="NEDOS">   301</i>
   <i name="EMIN">     10.00000000</i>
   <i name="EMAX">    -10.00000000</i>
  </separator>
  <separator name="writing" >
   <i type="int" name="NWRITE">     3</i>
   <i type="logical" name="LWAVE"> T  </i>
   <i type="logical" name="LCHARG"> T  </i>
   <i type="logical" name="LPARD"> F  </i>
   <i type="logical" name="LVTOT"> F  </i>
   <i type="logical" name="LELF"> F  </i>
   <i type="logical" name="LOPTICS"> F  </i>
   <v name="STM">      0.00000000      0.00000000      0.00000000      0.00000000      0.00000000</v>
  </separator>
  <separator name="performance" >
   <i type="int" name="NPAR">     8</i>
   <i type="int" name="NSIM">     4</i>
   <i type="int" name="NBLK">   256</i>
   <i type="logical" name="LPLANE"> T  </i>
   <i type="logical" name="LCRITICAL_MEM"> F  </i>
   <i type="logical" name="LSCALAPACK"> F  </i>
   <i type="logical" name="LSCALU"> F  </i>
   <i type="logical" name="LASYNC"> F  </i>
  </separator>
  <separator name="miscellaneous" >
   <i type="int" name="IDIOT">     3</i>
   <i type="logical" name="LMUSIC"> F  </i>
   <v name="POMASS">     12.01100000</v>
   <i type="logical" name="LCORR"> T  </i>
  </separator>
  <i type="logical" name="LREAL_COMPAT"> F  </i>
  <i type="logical" name="GGA_COMPAT"> T  </i>
  <i type="logical" name="LBERRY"> F  </i>
  <i type="int" name="ICORELEVEL">     0</i>
  <i type="logical" name="LDAU"> F  </i>
  <i type="int" name="I_CONSTRAINED_M">     0</i>
 </parameters>
 <atominfo>
  <atoms>      96</atoms>
  <types>       1</types>
  <array name="atoms" >
   <dimension dim="1">ion</dimension>
   <field type="string">element</field>
   <field type="int">atomtype</field>
   <set>
    <rc><c>C </c><c>   1</c></rc>
    <rc><c>C </c><c>   1</c></rc>
    <rc><c>C </c><c>   1</c></rc>
    <rc><c>C </c><c>   1</c></rc>
    <rc><c>C </c><c>   1</c></rc>
    <rc><c>C </c><c>   1</c></rc>
    <rc><c>C </c><c>   1</c></rc>
    <rc><c>C </c><c>   1</c></rc>
    <rc><c>C </c><c>   1</c></rc>
    <rc><c>C </c><c>   1</c></rc>
    <rc><c>C </c><c>   1</c></rc>
    <rc><c>C </c><c>   1</c></rc>
    <rc><c>C </c><c>   1</c></rc>
    <rc><c>C </c><c>   1</c></rc>
    <rc><c>C </c><c>   1</c></rc>
    <rc><c>C </c><c>   1</c></rc>
    <rc><c>C </c><c>   1</c></rc>
    <rc><c>C </c><c>   1</c></rc>
    <rc><c>C </c><c>   1</c></rc>
    <rc><c>C </c><c>   1</c></rc>
    <rc><c>C </c><c>   1</c></rc>
    <rc><c>C </c><c>   1</c></rc>
    <rc><c>C </c><c>   1</c></rc>
    <rc><c>C </c><c>   1</c></rc>
    <rc><c>C </c><c>   1</c></rc>
    <rc><c>C </c><c>   1</c></rc>
    <rc><c>C </c><c>   1</c></rc>
    <rc><c>C </c><c>   1</c></rc>
    <rc><c>C </c><c>   1</c></rc>
    <rc><c>C </c><c>   1</c></rc>
    <rc><c>C </c><c>   1</c></rc>
    <rc><c>C </c><c>   1</c></rc>
    <rc><c>C </c><c>   1</c></rc>
    <rc><c>C </c><c>   1</c></rc>
    <rc><c>C </c><c>   1</c></rc>
    <rc><c>C </c><c>   1</c></rc>
    <rc><c>C </c><c>   1</c></rc>
    <rc><c>C </c><c>   1</c></rc>
    <rc><c>C </c><c>   1</c></rc>
    <rc><c>C </c><c>   1</c></rc>
    <rc><c>C </c><c>   1</c></rc>
    <rc><c>C </c><c>   1</c></rc>
    <rc><c>C </c><c>   1</c></rc>
    <rc><c>C </c><c>   1</c></rc>
    <rc><c>C </c><c>   1</c></rc>
    <rc><c>C </c><c>   1</c></rc>
    <rc><c>C </c><c>   1</c></rc>
    <rc><c>C </c><c>   1</c></rc>
    <rc><c>C </c><c>   1</c></rc>
    <rc><c>C </c><c>   1</c></rc>
    <rc><c>C </c><c>   1</c></rc>
    <rc><c>C </c><c>   1</c></rc>
    <rc><c>C </c><c>   1</c></rc>
    <rc><c>C </c><c>   1</c></rc>
    <rc><c>C </c><c>   1</c></rc>
    <rc><c>C </c><c>   1</c></rc>
    <rc><c>C </c><c>   1</c></rc>
    <rc><c>C </c><c>   1</c></rc>
    <rc><c>C </c><c>   1</c></rc>
    <rc><c>C </c><c>   1</c></rc>
    <rc><c>C </c><c>   1</c></rc>
    <rc><c>C </c><c>   1</c></rc>
    <rc><c>C </c><c>   1</c></rc>
    <rc><c>C </c><c>   1</c></rc>
    <rc><c>C </c><c>   1</c></rc>
    <rc><c>C </c><c>   1</c></rc>
    <rc><c>C </c><c>   1</c></rc>
    <rc><c>C </c><c>   1</c></rc>
    <rc><c>C </c><c>   1</c></rc>
    <rc><c>C </c><c>   1</c></rc>
    <rc><c>C </c><c>   1</c></rc>
    <rc><c>C </c><c>   1</c></rc>
    <rc><c>C </c><c>   1</c></rc>
    <rc><c>C </c><c>   1</c></rc>
    <rc><c>C </c><c>   1</c></rc>
    <rc><c>C </c><c>   1</c></rc>
    <rc><c>C </c><c>   1</c></rc>
    <rc><c>C </c><c>   1</c></rc>
    <rc><c>C </c><c>   1</c></rc>
    <rc><c>C </c><c>   1</c></rc>
    <rc><c>C </c><c>   1</c></rc>
    <rc><c>C </c><c>   1</c></rc>
    <rc><c>C </c><c>   1</c></rc>
    <rc><c>C </c><c>   1</c></rc>
    <rc><c>C </c><c>   1</c></rc>
    <rc><c>C </c><c>   1</c></rc>
    <rc><c>C </c><c>   1</c></rc>
    <rc><c>C </c><c>   1</c></rc>
    <rc><c>C </c><c>   1</c></rc>
    <rc><c>C </c><c>   1</c></rc>
    <rc><c>C </c><c>   1</c></rc>
    <rc><c>C </c><c>   1</c></rc>
    <rc><c>C </c><c>   1</c></rc>
    <rc><c>C </c><c>   1</c></rc>
    <rc><c>C </c><c>   1</c></rc>
    <rc><c>C </c><c>   1</c></rc>
   </set>
  </array>
  <array name="atomtypes" >
   <dimension dim="1">type</dimension>
   <field type="int">atomspertype</field>
   <field type="string">element</field>
   <field>mass</field>
   <field>valence</field>
   <field type="string">pseudopotential</field>
   <set>
    <rc><c>  96</c><c>C </c><c>     12.01100000</c><c>      4.00000000</c><c> PAW C_h 17Apr2000                      </c></rc>
   </set>
  </array>
 </atominfo>
 <structure name="initialpos" >
  <crystal>
   <varray name="basis" >
    <v>       7.35000000       0.00000000       0.00000000 </v>
    <v>       0.00000000       8.48705000       0.00000000 </v>
    <v>       0.00000000       0.00000000      23.39800000 </v>
   </varray>
   <i name="volume">   1459.56296987</i>
   <varray name="rec_basis" >
    <v>       0.13605442       0.00000000       0.00000000 </v>
    <v>       0.00000000       0.11782657       0.00000000 </v>
    <v>       0.00000000       0.00000000       0.04273870 </v>
   </varray>
  </crystal>
  <varray name="positions" >
   <v>       0.33333333       0.49999941       0.14315326 </v>
   <v>       0.33333333       0.49999941       0.28630652 </v>
   <v>       0.50000000       0.58333343       0.14315326 </v>
   <v>       0.50000000       0.75000029       0.14315326 </v>
   <v>       0.50000000       0.75000029       0.28630652 </v>
   <v>       0.33333333       0.66666627       0.28630652 </v>
   <v>       0.50000000       0.91666598       0.28630652 </v>
   <v>       0.33333333       0.83333314       0.14315326 </v>
   <v>       0.33333333       0.00000000       0.14315326 </v>
   <v>       0.33333333       0.00000000       0.28630652 </v>
   <v>       0.50000000       0.08333284       0.14315326 </v>
   <v>       0.50000000       0.24999971       0.14315326 </v>
   <v>       0.50000000       0.24999971       0.28630652 </v>
   <v>       0.33333333       0.16666686       0.28630652 </v>
   <v>       0.50000000       0.41666657       0.28630652 </v>
   <v>       0.33333333       0.33333373       0.14315326 </v>
   <v>       0.66666667       0.49999941       0.14315326 </v>
   <v>       0.66666667       0.49999941       0.28630652 </v>
   <v>       0.83333333       0.58333343       0.14315326 </v>
   <v>       0.83333333       0.75000029       0.14315326 </v>
   <v>       0.83333333       0.75000029       0.28630652 </v>
   <v>       0.66666667       0.66666627       0.28630652 </v>
   <v>       0.83333333       0.91666598       0.28630652 </v>
   <v>       0.66666667       0.83333314       0.14315326 </v>
   <v>       0.66666667       0.00000000       0.14315326 </v>
   <v>       0.66666667       0.00000000       0.28630652 </v>
   <v>       0.83333333       0.08333284       0.14315326 </v>
   <v>       0.83333333       0.24999971       0.14315326 </v>
   <v>       0.83333333       0.24999971       0.28630652 </v>
   <v>       0.66666667       0.16666686       0.28630652 </v>
   <v>       0.83333333       0.41666657       0.28630652 </v>
   <v>       0.66666667       0.33333373       0.14315326 </v>
   <v>       0.00000000       0.49999941       0.14315326 </v>
   <v>       0.00000000       0.49999941       0.28630652 </v>
   <v>       0.16666667       0.58333343       0.14315326 </v>
   <v>       0.16666667       0.75000029       0.14315326 </v>
   <v>       0.16666667       0.75000029       0.28630652 </v>
   <v>       0.00000000       0.66666627       0.28630652 </v>
   <v>       0.16666667       0.91666598       0.28630652 </v>
   <v>       0.00000000       0.83333314       0.14315326 </v>
   <v>       0.00000000       0.00000000       0.14315326 </v>
   <v>       0.00000000       0.00000000       0.28630652 </v>
   <v>       0.16666667       0.08333284       0.14315326 </v>
   <v>       0.16666667       0.24999971       0.14315326 </v>
   <v>       0.16666667       0.24999971       0.28630652 </v>
   <v>       0.00000000       0.16666686       0.28630652 </v>
   <v>       0.16666667       0.41666657       0.28630652 </v>
   <v>       0.00000000       0.33333373       0.14315326 </v>
   <v>       0.33333333       0.49999941       0.42945978 </v>
   <v>       0.33333333       0.49999941       0.57261304 </v>
   <v>       0.50000000       0.58333343       0.42945978 </v>
   <v>       0.50000000       0.75000029       0.42945978 </v>
   <v>       0.50000000       0.75000029       0.57261304 </v>
   <v>       0.33333333       0.66666627       0.57261304 </v>
   <v>       0.50000000       0.91666598       0.57261304 </v>
   <v>       0.33333333       0.83333314       0.42945978 </v>
   <v>       0.33333333       0.00000000       0.42945978 </v>
   <v>       0.33333333       0.00000000       0.57261304 </v>
   <v>       0.50000000       0.08333284       0.42945978 </v>
   <v>       0.50000000       0.24999971       0.42945978 </v>
   <v>       0.50000000       0.24999971       0.57261304 </v>
   <v>       0.33333333       0.16666686       0.57261304 </v>
   <v>       0.50000000       0.41666657       0.57261304 </v>
   <v>       0.33333333       0.33333373       0.42945978 </v>
   <v>       0.66666667       0.49999941       0.42945978 </v>
   <v>       0.66666667       0.49999941       0.57261304 </v>
   <v>       0.83333333       0.58333343       0.42945978 </v>
   <v>       0.83333333       0.75000029       0.42945978 </v>
   <v>       0.83333333       0.75000029       0.57261304 </v>
   <v>       0.66666667       0.66666627       0.57261304 </v>
   <v>       0.83333333       0.91666598       0.57261304 </v>
   <v>       0.66666667       0.83333314       0.42945978 </v>
   <v>       0.66666667       0.00000000       0.42945978 </v>
   <v>       0.66666667       0.00000000       0.57261304 </v>
   <v>       0.83333333       0.08333284       0.42945978 </v>
   <v>       0.83333333       0.24999971       0.42945978 </v>
   <v>       0.83333333       0.24999971       0.57261304 </v>
   <v>       0.66666667       0.16666686       0.57261304 </v>
   <v>       0.83333333       0.41666657       0.57261304 </v>
   <v>       0.66666667       0.33333373       0.42945978 </v>
   <v>       0.00000000       0.49999941       0.42945978 </v>
   <v>       0.00000000       0.49999941       0.57261304 </v>
   <v>       0.16666667       0.58333343       0.42945978 </v>
   <v>       0.16666667       0.75000029       0.42945978 </v>
   <v>       0.16666667       0.75000029       0.57261304 </v>
   <v>       0.00000000       0.66666627       0.57261304 </v>
   <v>       0.16666667       0.91666598       0.57261304 </v>
   <v>       0.00000000       0.83333314       0.42945978 </v>
   <v>       0.00000000       0.00000000       0.42945978 </v>
   <v>       0.00000000       0.00000000       0.57261304 </v>
   <v>       0.16666667       0.08333284       0.42945978 </v>
   <v>       0.16666667       0.24999971       0.42945978 </v>
   <v>       0.16666667       0.24999971       0.57261304 </v>
   <v>       0.00000000       0.16666686       0.57261304 </v>
   <v>       0.16666667       0.41666657       0.57261304 </v>
   <v>       0.00000000       0.33333373       0.42945978 </v>
  </varray>
 </structure>
 <calculation>
  <scstep>
   <time name="diag">   27.87   27.88</time>
   <time name="diis">   56.60   56.62</time>
   <time name="orth">    2.76    2.76</time>
   <time name="total">   87.54   87.60</time>
   <energy>
    <i name="alphaZ">    292.33353168</i>
    <i name="ewald">  71493.67029733</i>
    <i name="hartreedc"> -83784.86302559</i>
    <i name="XCdc">   1337.79607557</i>
    <i name="pawpsdc">   1530.85232848</i>
    <i name="pawaedc">  -1648.05373511</i>
    <i name="eentropy">     -0.04143564</i>
    <i name="bandstr">   3280.38729692</i>
    <i name="atom">  14081.68569326</i>
    <i name="e_fr_energy">   6583.76702692</i>
    <i name="e_wo_entrp">   6583.80846255</i>
    <i name="e_0_energy">   6583.78774474</i>
   </energy>
  </scstep>
  <scstep>
   <time name="diag">   27.82   27.83</time>
   <time name="diis">   56.68   56.73</time>
   <time name="orth">    2.79    2.79</time>
   <time name="total">   87.32   87.37</time>
   <energy>
    <i name="e_fr_energy">   2017.93252694</i>
    <i name="e_wo_entrp">   2017.95692154</i>
    <i name="e_0_energy">   2017.94472424</i>
   </energy>
  </scstep>
  <scstep>
   <time name="diag">   27.87   27.88</time>
   <time name="diis">   54.80   54.83</time>
   <time name="orth">    2.78    2.79</time>
   <time name="total">   85.50   85.54</time>
   <energy>
    <i name="e_fr_energy">    471.46028445</i>
    <i name="e_wo_entrp">    471.52565510</i>
    <i name="e_0_energy">    471.49296978</i>
   </energy>
  </scstep>
  <scstep>
   <time name="diag">   27.59   27.60</time>
   <time name="diis">   56.48   56.50</time>
   <time name="orth">    3.04    3.04</time>
   <time name="total">   87.17   87.21</time>
   <energy>
    <i name="e_fr_energy">   -386.40295315</i>
    <i name="e_wo_entrp">   -386.38410729</i>
    <i name="e_0_energy">   -386.39353022</i>
   </energy>
  </scstep>
  <scstep>
   <time name="diag">   28.24   28.25</time>
   <time name="diis">   56.85   56.89</time>
   <time name="orth">    2.92    2.92</time>
   <time name="total">   88.06   88.12</time>
   <energy>
    <i name="e_fr_energy">   -781.12688020</i>
    <i name="e_wo_entrp">   -781.11097519</i>
    <i name="e_0_energy">   -781.11892769</i>
   </energy>
  </scstep>
  <scstep>
   <time name="diag">   27.80   27.80</time>
   <time name="diis">   56.94   56.96</time>
   <time name="orth">    2.82    2.82</time>
   <time name="total">   87.58   87.61</time>
   <energy>
    <i name="e_fr_energy">   -937.38241015</i>
    <i name="e_wo_entrp">   -937.37557486</i>
    <i name="e_0_energy">   -937.37899250</i>
   </energy>
  </scstep>
  <scstep>
   <time name="diag">   27.89   27.90</time>
   <time name="diis">   56.74   56.77</time>
   <time name="orth">    2.85    2.87</time>
   <time name="total">   87.51   87.56</time>
   <energy>
    <i name="e_fr_energy">   -996.10163551</i>
    <i name="e_wo_entrp">   -996.09566869</i>
    <i name="e_0_energy">   -996.09865210</i>
   </energy>
  </scstep>
  <scstep>
   <time name="diag">   28.01   28.03</time>
   <time name="diis">   56.40   56.43</time>
   <time name="orth">    3.10    3.10</time>
   <time name="total">   87.53   87.58</time>
   <energy>
    <i name="e_fr_energy">  -1020.92889700</i>
    <i name="e_wo_entrp">  -1020.92883109</i>
    <i name="e_0_energy">  -1020.92886405</i>
   </energy>
  </scstep>
  <scstep>
   <time name="diag">   27.93   27.94</time>
   <time name="diis">  111.11  111.17</time>
   <time name="orth">    2.80    2.80</time>
   <time name="total">  141.89  141.95</time>
   <energy>
    <i name="e_fr_energy">  -1038.54750692</i>
    <i name="e_wo_entrp">  -1038.54750545</i>
    <i name="e_0_energy">  -1038.54750619</i>
   </energy>
  </scstep>
  <scstep>
   <time name="diag">   27.94   28.06</time>
   <time name="diis">  123.28  123.32</time>
   <time name="orth">    2.88    2.88</time>
   <time name="total">  154.12  154.30</time>
   <energy>
    <i name="e_fr_energy">  -1040.23293926</i>
    <i name="e_wo_entrp">  -1040.23293631</i>
    <i name="e_0_energy">  -1040.23293779</i>
   </energy>
  </scstep>
  <scstep>
   <time name="diag">   28.08   28.09</time>
   <time name="diis">  116.28  116.33</time>
   <time name="orth">    3.08    3.09</time>
   <time name="total">  147.47  147.54</time>
   <energy>
    <i name="e_fr_energy">  -1040.32531888</i>
    <i name="e_wo_entrp">  -1040.32531449</i>
    <i name="e_0_energy">  -1040.32531669</i>
   </energy>
  </scstep>
  <scstep>
   <time name="diag">   28.11   28.11</time>
   <time name="diis">  114.96  115.00</time>
   <time name="orth">    2.83    2.84</time>
   <time name="total">  156.55  156.62</time>
   <energy>
    <i name="e_fr_energy">  -1040.33139189</i>
    <i name="e_wo_entrp">  -1040.33138646</i>
    <i name="e_0_energy">  -1040.33138918</i>
   </energy>
  </scstep>
  <scstep>
   <time name="diag">   28.37   28.38</time>
   <time name="diis">   94.21   94.25</time>
   <time name="orth">    2.82    2.82</time>
   <time name="total">  136.19  136.24</time>
   <energy>
    <i name="e_fr_energy">   -998.72106643</i>
    <i name="e_wo_entrp">   -998.72105912</i>
    <i name="e_0_energy">   -998.72106277</i>
   </energy>
  </scstep>
  <scstep>
   <time name="diag">   27.96   27.97</time>
   <time name="diis">   94.13   94.16</time>
   <time name="orth">    2.91    2.91</time>
   <time name="total">  135.85  135.90</time>
   <energy>
    <i name="e_fr_energy">   -971.36878182</i>
    <i name="e_wo_entrp">   -971.36876910</i>
    <i name="e_0_energy">   -971.36877546</i>
   </energy>
  </scstep>
  <scstep>
   <time name="diag">   28.06   28.07</time>
   <time name="diis">   94.26   94.29</time>
   <time name="orth">    2.90    2.90</time>
   <time name="total">  136.02  136.07</time>
   <energy>
    <i name="e_fr_energy">   -970.74763980</i>
    <i name="e_wo_entrp">   -970.74762671</i>
    <i name="e_0_energy">   -970.74763326</i>
   </energy>
  </scstep>
  <scstep>
   <time name="diag">   28.00   28.01</time>
   <time name="diis">   96.70   96.76</time>
   <time name="orth">    2.92    2.92</time>
   <time name="total">  138.47  138.54</time>
   <energy>
    <i name="e_fr_energy">   -970.68553311</i>
    <i name="e_wo_entrp">   -970.68551974</i>
    <i name="e_0_energy">   -970.68552642</i>
   </energy>
  </scstep>
  <scstep>
   <time name="diag">   27.97   27.98</time>
   <time name="diis">   98.28   98.33</time>
   <time name="orth">    2.85    2.85</time>
   <time name="total">  139.92  139.98</time>
   <energy>
    <i name="e_fr_energy">   -970.69132270</i>
    <i name="e_wo_entrp">   -970.69130952</i>
    <i name="e_0_energy">   -970.69131611</i>
   </energy>
  </scstep>
  <scstep>
   <time name="diag">   28.01   28.14</time>
   <time name="diis">   96.49   96.52</time>
   <time name="orth">    2.99    2.99</time>
   <time name="total">  138.36  138.53</time>
   <energy>
    <i name="e_fr_energy">   -970.70698486</i>
    <i name="e_wo_entrp">   -970.70697172</i>
    <i name="e_0_energy">   -970.70697829</i>
   </energy>
  </scstep>
  <scstep>
   <time name="diag">   28.00   28.01</time>
   <time name="diis">   95.90   95.94</time>
   <time name="orth">    2.91    2.91</time>
   <time name="total">  137.66  137.72</time>
   <energy>
    <i name="e_fr_energy">   -970.71686111</i>
    <i name="e_wo_entrp">   -970.71684799</i>
    <i name="e_0_energy">   -970.71685455</i>
   </energy>
  </scstep>
  <scstep>
   <time name="diag">   28.08   28.09</time>
   <time name="diis">   93.72   93.75</time>
   <time name="orth">    2.96    2.96</time>
   <time name="total">  135.62  135.67</time>
   <energy>
    <i name="e_fr_energy">   -970.72585902</i>
    <i name="e_wo_entrp">   -970.72584589</i>
    <i name="e_0_energy">   -970.72585245</i>
   </energy>
  </scstep>
  <scstep>
   <time name="diag">   28.09   28.12</time>
   <time name="diis">   90.85   90.88</time>
   <time name="orth">    3.15    3.15</time>
   <time name="total">  132.94  133.01</time>
   <energy>
    <i name="e_fr_energy">   -970.72913505</i>
    <i name="e_wo_entrp">   -970.72912191</i>
    <i name="e_0_energy">   -970.72912848</i>
   </energy>
  </scstep>
  <scstep>
   <time name="diag">   27.88   27.89</time>
   <time name="diis">   69.27   69.29</time>
   <time name="orth">    2.96    2.96</time>
   <time name="total">  110.96  111.02</time>
   <energy>
    <i name="e_fr_energy">   -970.73171703</i>
    <i name="e_wo_entrp">   -970.73170388</i>
    <i name="e_0_energy">   -970.73171045</i>
   </energy>
  </scstep>
  <scstep>
   <time name="diag">   28.31   28.32</time>
   <time name="diis">   66.95   66.97</time>
   <time name="orth">    2.94    2.94</time>
   <time name="total">  109.10  109.14</time>
   <energy>
    <i name="e_fr_energy">   -970.73316301</i>
    <i name="e_wo_entrp">   -970.73314985</i>
    <i name="e_0_energy">   -970.73315643</i>
   </energy>
  </scstep>
  <scstep>
   <time name="diag">   28.05   28.07</time>
   <time name="diis">   53.69   53.71</time>
   <time name="orth">    2.91    2.91</time>
   <time name="total">   95.40   95.43</time>
   <energy>
    <i name="e_fr_energy">   -970.73338144</i>
    <i name="e_wo_entrp">   -970.73336828</i>
    <i name="e_0_energy">   -970.73337486</i>
   </energy>
  </scstep>
  <scstep>
   <time name="diag">   27.83   27.85</time>
   <time name="diis">   51.64   51.66</time>
   <time name="orth">    2.79    2.79</time>
   <time name="total">   93.09   93.14</time>
   <energy>
    <i name="e_fr_energy">   -970.73364945</i>
    <i name="e_wo_entrp">   -970.73363630</i>
    <i name="e_0_energy">   -970.73364287</i>
   </energy>
  </scstep>
  <scstep>
   <time name="diag">   27.92   27.93</time>
   <time name="diis">   46.57   46.59</time>
   <time name="orth">    2.82    2.82</time>
   <time name="total">   77.73   77.76</time>
   <energy>
    <i name="alphaZ">    292.33353168</i>
    <i name="ewald">  71493.67029733</i>
    <i name="hartreedc"> -85080.89529678</i>
    <i name="XCdc">   1398.14232062</i>
    <i name="pawpsdc">   2534.32190271</i>
    <i name="pawaedc">  -2670.40474358</i>
    <i name="eentropy">     -0.00001315</i>
    <i name="bandstr">  -3019.58737303</i>
    <i name="atom">  14081.68569326</i>
    <i name="e_fr_energy">   -970.73368093</i>
    <i name="e_wo_entrp">   -970.73366779</i>
    <i name="e_0_energy">   -970.73367436</i>
   </energy>
  </scstep>
  <structure>
   <crystal>
    <varray name="basis" >
     <v>       7.35000000       0.00000000       0.00000000 </v>
     <v>       0.00000000       8.48705000       0.00000000 </v>
     <v>       0.00000000       0.00000000      23.39800000 </v>
    </varray>
    <i name="volume">   1459.56296987</i>
    <varray name="rec_basis" >
     <v>       0.13605442       0.00000000       0.00000000 </v>
     <v>       0.00000000       0.11782657       0.00000000 </v>
     <v>       0.00000000       0.00000000       0.04273870 </v>
    </varray>
   </crystal>
   <varray name="positions" >
    <v>       0.33333333       0.49999941       0.14315326 </v>
    <v>       0.33333333       0.49999941       0.28630652 </v>
    <v>       0.50000000       0.58333343       0.14315326 </v>
    <v>       0.50000000       0.75000029       0.14315326 </v>
    <v>       0.50000000       0.75000029       0.28630652 </v>
    <v>       0.33333333       0.66666627       0.28630652 </v>
    <v>       0.50000000       0.91666598       0.28630652 </v>
    <v>       0.33333333       0.83333314       0.14315326 </v>
    <v>       0.33333333       0.00000000       0.14315326 </v>
    <v>       0.33333333       0.00000000       0.28630652 </v>
    <v>       0.50000000       0.08333284       0.14315326 </v>
    <v>       0.50000000       0.24999971       0.14315326 </v>
    <v>       0.50000000       0.24999971       0.28630652 </v>
    <v>       0.33333333       0.16666686       0.28630652 </v>
    <v>       0.50000000       0.41666657       0.28630652 </v>
    <v>       0.33333333       0.33333373       0.14315326 </v>
    <v>       0.66666667       0.49999941       0.14315326 </v>
    <v>       0.66666667       0.49999941       0.28630652 </v>
    <v>       0.83333333       0.58333343       0.14315326 </v>
    <v>       0.83333333       0.75000029       0.14315326 </v>
    <v>       0.83333333       0.75000029       0.28630652 </v>
    <v>       0.66666667       0.66666627       0.28630652 </v>
    <v>       0.83333333       0.91666598       0.28630652 </v>
    <v>       0.66666667       0.83333314       0.14315326 </v>
    <v>       0.66666667       0.00000000       0.14315326 </v>
    <v>       0.66666667       0.00000000       0.28630652 </v>
    <v>       0.83333333       0.08333284       0.14315326 </v>
    <v>       0.83333333       0.24999971       0.14315326 </v>
    <v>       0.83333333       0.24999971       0.28630652 </v>
    <v>       0.66666667       0.16666686       0.28630652 </v>
    <v>       0.83333333       0.41666657       0.28630652 </v>
    <v>       0.66666667       0.33333373       0.14315326 </v>
    <v>       0.00000000       0.49999941       0.14315326 </v>
    <v>       0.00000000       0.49999941       0.28630652 </v>
    <v>       0.16666667       0.58333343       0.14315326 </v>
    <v>       0.16666667       0.75000029       0.14315326 </v>
    <v>       0.16666667       0.75000029       0.28630652 </v>
    <v>       0.00000000       0.66666627       0.28630652 </v>
    <v>       0.16666667       0.91666598       0.28630652 </v>
    <v>       0.00000000       0.83333314       0.14315326 </v>
    <v>       0.00000000       0.00000000       0.14315326 </v>
    <v>       0.00000000       0.00000000       0.28630652 </v>
    <v>       0.16666667       0.08333284       0.14315326 </v>
    <v>       0.16666667       0.24999971       0.14315326 </v>
    <v>       0.16666667       0.24999971       0.28630652 </v>
    <v>       0.00000000       0.16666686       0.28630652 </v>
    <v>       0.16666667       0.41666657       0.28630652 </v>
    <v>       0.00000000       0.33333373       0.14315326 </v>
    <v>       0.33333333       0.49999941       0.42945978 </v>
    <v>       0.33333333       0.49999941       0.57261304 </v>
    <v>       0.50000000       0.58333343       0.42945978 </v>
    <v>       0.50000000       0.75000029       0.42945978 </v>
    <v>       0.50000000       0.75000029       0.57261304 </v>
    <v>       0.33333333       0.66666627       0.57261304 </v>
    <v>       0.50000000       0.91666598       0.57261304 </v>
    <v>       0.33333333       0.83333314       0.42945978 </v>
    <v>       0.33333333       0.00000000       0.42945978 </v>
    <v>       0.33333333       0.00000000       0.57261304 </v>
    <v>       0.50000000       0.08333284       0.42945978 </v>
    <v>       0.50000000       0.24999971       0.42945978 </v>
    <v>       0.50000000       0.24999971       0.57261304 </v>
    <v>       0.33333333       0.16666686       0.57261304 </v>
    <v>       0.50000000       0.41666657       0.57261304 </v>
    <v>       0.33333333       0.33333373       0.42945978 </v>
    <v>       0.66666667       0.49999941       0.42945978 </v>
    <v>       0.66666667       0.49999941       0.57261304 </v>
    <v>       0.83333333       0.58333343       0.42945978 </v>
    <v>       0.83333333       0.75000029       0.42945978 </v>
    <v>       0.83333333       0.75000029       0.57261304 </v>
    <v>       0.66666667       0.66666627       0.57261304 </v>
    <v>       0.83333333       0.91666598       0.57261304 </v>
    <v>       0.66666667       0.83333314       0.42945978 </v>
    <v>       0.66666667       0.00000000       0.42945978 </v>
    <v>       0.66666667       0.00000000       0.57261304 </v>
    <v>       0.83333333       0.08333284       0.42945978 </v>
    <v>       0.83333333       0.24999971       0.42945978 </v>
    <v>       0.83333333       0.24999971       0.57261304 </v>
    <v>       0.66666667       0.16666686       0.57261304 </v>
    <v>       0.83333333       0.41666657       0.57261304 </v>
    <v>       0.66666667       0.33333373       0.42945978 </v>
    <v>       0.00000000       0.49999941       0.42945978 </v>
    <v>       0.00000000       0.49999941       0.57261304 </v>
    <v>       0.16666667       0.58333343       0.42945978 </v>
    <v>       0.16666667       0.75000029       0.42945978 </v>
    <v>       0.16666667       0.75000029       0.57261304 </v>
    <v>       0.00000000       0.66666627       0.57261304 </v>
    <v>       0.16666667       0.91666598       0.57261304 </v>
    <v>       0.00000000       0.83333314       0.42945978 </v>
    <v>       0.00000000       0.00000000       0.42945978 </v>
    <v>       0.00000000       0.00000000       0.57261304 </v>
    <v>       0.16666667       0.08333284       0.42945978 </v>
    <v>       0.16666667       0.24999971       0.42945978 </v>
    <v>       0.16666667       0.24999971       0.57261304 </v>
    <v>       0.00000000       0.16666686       0.57261304 </v>
    <v>       0.16666667       0.41666657       0.57261304 </v>
    <v>       0.00000000       0.33333373       0.42945978 </v>
   </varray>
  </structure>
  <varray name="forces" >
   <v>      -0.01426360      -0.00409783       0.00483861 </v>
   <v>       0.00094878       0.01696947       0.00213156 </v>
   <v>       0.00006898      -0.00131050      -0.03488872 </v>
   <v>       0.00005124      -0.00333279      -0.01880366 </v>
   <v>       0.00005187       0.01473290       0.00958501 </v>
   <v>       0.00085711      -0.00823263       0.00261223 </v>
   <v>       0.00006692      -0.00625865       0.01005676 </v>
   <v>      -0.01424326       0.00031487      -0.01127570 </v>
   <v>      -0.01429901      -0.00459971       0.00484510 </v>
   <v>       0.00085375       0.01659236       0.00213343 </v>
   <v>      -0.00006764      -0.00096593      -0.03488972 </v>
   <v>      -0.00005487      -0.00302973      -0.01879373 </v>
   <v>      -0.00002807       0.01535202       0.00958270 </v>
   <v>       0.00094648      -0.00850390       0.00260076 </v>
   <v>      -0.00001575      -0.00691258       0.01005719 </v>
   <v>      -0.01422285      -0.00031847      -0.01129222 </v>
   <v>       0.01425150      -0.00405693       0.00483934 </v>
   <v>      -0.00097179       0.01703915       0.00213104 </v>
   <v>      -0.01429835       0.00008629      -0.01128353 </v>
   <v>      -0.01427289      -0.00473473       0.00484131 </v>
   <v>       0.00081810       0.01640483       0.00213687 </v>
   <v>      -0.00086232      -0.00823627       0.00260182 </v>
   <v>       0.00079768      -0.00801071       0.00260765 </v>
   <v>       0.01424206       0.00024462      -0.01127861 </v>
   <v>       0.01433485      -0.00463285       0.00484900 </v>
   <v>      -0.00092063       0.01660049       0.00213428 </v>
   <v>      -0.01424328       0.00043803      -0.01128328 </v>
   <v>      -0.01422563      -0.00455471       0.00482948 </v>
   <v>       0.00096291       0.01694303       0.00213006 </v>
   <v>      -0.00091442      -0.00855923       0.00260639 </v>
   <v>       0.00096386      -0.00855222       0.00259844 </v>
   <v>       0.01421011      -0.00023538      -0.01128650 </v>
   <v>       0.00000476      -0.00265696      -0.01880950 </v>
   <v>       0.00002796       0.01530060       0.00958408 </v>
   <v>       0.01422695       0.00010983      -0.01127133 </v>
   <v>       0.01422196      -0.00476148       0.00483825 </v>
   <v>      -0.00086757       0.01651554       0.00212818 </v>
   <v>      -0.00000105      -0.00660328       0.01005368 </v>
   <v>      -0.00085980      -0.00804731       0.00260458 </v>
   <v>       0.00000137      -0.00118051      -0.03489897 </v>
   <v>      -0.00004475      -0.00317585      -0.01879326 </v>
   <v>       0.00006168       0.01494378       0.00958361 </v>
   <v>       0.01431646       0.00042812      -0.01128714 </v>
   <v>       0.01428512      -0.00449869       0.00483604 </v>
   <v>      -0.00093886       0.01695759       0.00213423 </v>
   <v>      -0.00002925      -0.00679859       0.01005336 </v>
   <v>      -0.00096549      -0.00850782       0.00260133 </v>
   <v>       0.00000996      -0.00171058      -0.03489344 </v>
   <v>       0.01968023      -0.01463050       0.01240016 </v>
   <v>      -0.00523193       0.00429024      -0.00498117 </v>
   <v>       0.00004757       0.00719615      -0.01097682 </v>
   <v>       0.00005968      -0.01587063      -0.01051142 </v>
   <v>      -0.00004774       0.00279373      -0.00901232 </v>
   <v>      -0.00529653       0.00034324       0.01113061 </v>
   <v>      -0.00002950       0.00160824       0.00711577 </v>
   <v>       0.01973819       0.00688069       0.01189103 </v>
   <v>       0.01972593      -0.01526612       0.01238204 </v>
   <v>      -0.00529659       0.00404799      -0.00499609 </v>
   <v>       0.00002099       0.00745419      -0.01096714 </v>
   <v>       0.00010749      -0.01557542      -0.01050587 </v>
   <v>      -0.00003919       0.00334915      -0.00901768 </v>
   <v>      -0.00535659       0.00001631       0.01113130 </v>
   <v>      -0.00005749       0.00103367       0.00711781 </v>
   <v>       0.01968450       0.00623355       0.01188664 </v>
   <v>      -0.01973152      -0.01478126       0.01239939 </v>
   <v>       0.00535604       0.00419059      -0.00498699 </v>
   <v>       0.01968101       0.00662541       0.01188206 </v>
   <v>       0.01972327      -0.01537250       0.01239967 </v>
   <v>      -0.00524586       0.00367450      -0.00499062 </v>
   <v>       0.00538295       0.00042995       0.01112483 </v>
   <v>      -0.00529486       0.00058763       0.01112932 </v>
   <v>      -0.01976504       0.00690592       0.01188348 </v>
   <v>      -0.01974805      -0.01534759       0.01238526 </v>
   <v>       0.00525906       0.00401246      -0.00498790 </v>
   <v>       0.01968108       0.00685120       0.01189401 </v>
   <v>       0.01971690      -0.01500605       0.01239671 </v>
   <v>      -0.00528779       0.00435349      -0.00499294 </v>
   <v>       0.00530229       0.00003461       0.01113049 </v>
   <v>      -0.00530864       0.00005690       0.01111999 </v>
   <v>      -0.01980520       0.00633992       0.01188289 </v>
   <v>       0.00004013      -0.01524554      -0.01050508 </v>
   <v>      -0.00011425       0.00334980      -0.00901276 </v>
   <v>      -0.01970976       0.00669495       0.01188401 </v>
   <v>      -0.01977861      -0.01543959       0.01239543 </v>
   <v>       0.00529710       0.00367159      -0.00499990 </v>
   <v>      -0.00008157       0.00138131       0.00712568 </v>
   <v>       0.00532438       0.00067885       0.01114400 </v>
   <v>       0.00002588       0.00739034      -0.01097531 </v>
   <v>       0.00001340      -0.01584373      -0.01050421 </v>
   <v>       0.00003923       0.00311429      -0.00903546 </v>
   <v>      -0.01969771       0.00700567       0.01189140 </v>
   <v>      -0.01982646      -0.01510187       0.01240483 </v>
   <v>       0.00533856       0.00418064      -0.00499769 </v>
   <v>       0.00005540       0.00098265       0.00713033 </v>
   <v>       0.00535816       0.00003845       0.01112800 </v>
   <v>       0.00012021       0.00678581      -0.01096684 </v>
  </varray>
  <varray name="stress" >
   <v>     -11.95504704       0.00006195      -0.00000713 </v>
   <v>       0.00006133     -12.35204210       0.20514917 </v>
   <v>       0.00000285       0.20514960      -1.74150044 </v>
  </varray>
  <energy>
   <i name="e_fr_energy">   -970.73368093</i>
   <i name="e_wo_entrp">   -970.73367436</i>
   <i name="e_0_energy">     -0.00001315</i>
  </energy>
 </calculation>
 <calculation>
  <scstep>
   <time name="diag">   27.90   27.91</time>
   <time name="diis">   94.23   94.27</time>
   <time name="orth">    2.71    2.73</time>
   <time name="total">  135.71  135.78</time>
   <energy>
    <i name="alphaZ">    293.68716175</i>
    <i name="ewald">  71824.46143532</i>
    <i name="hartreedc"> -85416.08489920</i>
    <i name="XCdc">   1400.19796491</i>
    <i name="pawpsdc">   2534.35317156</i>
    <i name="pawaedc">  -2670.43685819</i>
    <i name="eentropy">     -0.00001181</i>
    <i name="bandstr">  -3018.61867535</i>
    <i name="atom">  14081.68569326</i>
    <i name="e_fr_energy">   -970.75501775</i>
    <i name="e_wo_entrp">   -970.75500594</i>
    <i name="e_0_energy">   -970.75501185</i>
   </energy>
  </scstep>
  <scstep>
   <time name="diag">   27.99   28.00</time>
   <time name="diis">   94.55   94.60</time>
   <time name="orth">    3.01    3.02</time>
   <time name="total">  136.43  136.49</time>
   <energy>
    <i name="e_fr_energy">   -970.75129402</i>
    <i name="e_wo_entrp">   -970.75128218</i>
    <i name="e_0_energy">   -970.75128810</i>
   </energy>
  </scstep>
  <scstep>
   <time name="diag">   28.14   28.16</time>
   <time name="diis">   94.71   94.75</time>
   <time name="orth">    3.70    3.70</time>
   <time name="total">  137.36  137.41</time>
   <energy>
    <i name="e_fr_energy">   -970.75041608</i>
    <i name="e_wo_entrp">   -970.75040422</i>
    <i name="e_0_energy">   -970.75041015</i>
   </energy>
  </scstep>
  <scstep>
   <time name="diag">   27.77   27.79</time>
   <time name="diis">   64.34   64.36</time>
   <time name="orth">    2.72    2.72</time>
   <time name="total">  105.64  105.68</time>
   <energy>
    <i name="e_fr_energy">   -970.75055647</i>
    <i name="e_wo_entrp">   -970.75054461</i>
    <i name="e_0_energy">   -970.75055054</i>
   </energy>
  </scstep>
  <scstep>
   <time name="diag">   28.10   28.11</time>
   <time name="diis">   63.12   63.14</time>
   <time name="orth">    2.78    2.78</time>
   <time name="total">   94.29   94.33</time>
   <energy>
    <i name="alphaZ">    293.68716175</i>
    <i name="ewald">  71824.46143532</i>
    <i name="hartreedc"> -85418.44401755</i>
    <i name="XCdc">   1400.06697448</i>
    <i name="pawpsdc">   2549.73563521</i>
    <i name="pawaedc">  -2686.17424929</i>
    <i name="eentropy">     -0.00001187</i>
    <i name="bandstr">  -3015.76914688</i>
    <i name="atom">  14081.68569326</i>
    <i name="e_fr_energy">   -970.75052556</i>
    <i name="e_wo_entrp">   -970.75051370</i>
    <i name="e_0_energy">   -970.75051963</i>
   </energy>
  </scstep>
  <structure>
   <crystal>
    <varray name="basis" >
     <v>       7.33443207       0.00000008      -0.00000001 </v>
     <v>       0.00000009       8.46847676       0.00030847 </v>
     <v>       0.00000001       0.00085044      23.39078071 </v>
    </varray>
    <i name="volume">   1452.83571525</i>
    <varray name="rec_basis" >
     <v>       0.13634321       0.00000000       0.00000000 </v>
     <v>       0.00000000       0.11808499      -0.00000429 </v>
     <v>       0.00000000      -0.00000156       0.04275189 </v>
    </varray>
   </crystal>
   <varray name="positions" >
    <v>       0.33329710       0.49999040       0.14315712 </v>
    <v>       0.33333574       0.50003674       0.28630822 </v>
    <v>       0.50000018       0.58333055       0.14312542 </v>
    <v>       0.50000013       0.74999296       0.14313826 </v>
    <v>       0.50000013       0.75003270       0.28631417 </v>
    <v>       0.33333551       0.66664816       0.28630861 </v>
    <v>       0.50000017       0.91665221       0.28631455 </v>
    <v>       0.33329715       0.83333383       0.14314426 </v>
    <v>       0.33329701      -0.00001012       0.14315713 </v>
    <v>       0.33333550       0.00003650       0.28630822 </v>
    <v>       0.49999983       0.08333072       0.14312542 </v>
    <v>       0.49999986       0.24999304       0.14313826 </v>
    <v>       0.49999993       0.25003348       0.28631417 </v>
    <v>       0.33333574       0.16664816       0.28630860 </v>
    <v>       0.49999996       0.41665136       0.28631455 </v>
    <v>       0.33329720       0.33333303       0.14314425 </v>
    <v>       0.66670287       0.49999049       0.14315712 </v>
    <v>       0.66666420       0.50003689       0.28630822 </v>
    <v>       0.83329701       0.58333362       0.14314426 </v>
    <v>       0.83329708       0.74998988       0.14315712 </v>
    <v>       0.83333541       0.75003638       0.28630823 </v>
    <v>       0.66666448       0.66664816       0.28630860 </v>
    <v>       0.83333536       0.91664836       0.28630860 </v>
    <v>       0.66670284       0.83333368       0.14314426 </v>
    <v>       0.66670308      -0.00001019       0.14315713 </v>
    <v>       0.66666433       0.00003652       0.28630822 </v>
    <v>       0.83329715       0.08333381       0.14314426 </v>
    <v>       0.83329720       0.24998969       0.14315711 </v>
    <v>       0.83333578       0.25003698       0.28630822 </v>
    <v>       0.66666434       0.16664803       0.28630860 </v>
    <v>       0.83333578       0.41664775       0.28630860 </v>
    <v>       0.66670276       0.33333321       0.14314425 </v>
    <v>       0.00000001       0.49999357       0.14313825 </v>
    <v>       0.00000007       0.50003307       0.28631417 </v>
    <v>       0.16670281       0.58333367       0.14314427 </v>
    <v>       0.16670279       0.74998982       0.14315712 </v>
    <v>       0.16666446       0.75003663       0.28630822 </v>
    <v>       0.00000000       0.66665175       0.28631454 </v>
    <v>       0.16666448       0.91664828       0.28630860 </v>
    <v>       0.00000000       0.83333054       0.14312541 </v>
    <v>      -0.00000011      -0.00000699       0.14313826 </v>
    <v>       0.00000016       0.00003287       0.28631417 </v>
    <v>       0.16670303       0.08333378       0.14314425 </v>
    <v>       0.16670295       0.24998981       0.14315712 </v>
    <v>       0.16666428       0.25003701       0.28630822 </v>
    <v>      -0.00000007       0.16665191       0.28631454 </v>
    <v>       0.16666421       0.41664785       0.28630860 </v>
    <v>       0.00000003       0.33332996       0.14312542 </v>
    <v>       0.33338332       0.49996723       0.42946968 </v>
    <v>       0.33332004       0.50000885       0.57260907 </v>
    <v>       0.50000012       0.58334926       0.42945102 </v>
    <v>       0.50000015       0.74996538       0.42945140 </v>
    <v>       0.49999988       0.75000644       0.57260585 </v>
    <v>       0.33331988       0.66666703       0.57262193 </v>
    <v>       0.49999993       0.91666952       0.57261872 </v>
    <v>       0.33338347       0.83334827       0.42946927 </v>
    <v>       0.33338344      -0.00003358       0.42946966 </v>
    <v>       0.33331988       0.00000890       0.57260906 </v>
    <v>       0.50000005       0.08334924       0.42945103 </v>
    <v>       0.50000027       0.24996544       0.42945140 </v>
    <v>       0.49999990       0.25000707       0.57260585 </v>
    <v>       0.33331973       0.16666690       0.57262193 </v>
    <v>       0.49999985       0.41666884       0.57261872 </v>
    <v>       0.33338334       0.33334744       0.42946927 </v>
    <v>       0.66661655       0.49996689       0.42946968 </v>
    <v>       0.66668027       0.50000863       0.57260906 </v>
    <v>       0.83338333       0.58334801       0.42946926 </v>
    <v>       0.83338343       0.74996648       0.42946968 </v>
    <v>       0.83332001       0.75000838       0.57260906 </v>
    <v>       0.66668034       0.66666722       0.57262192 </v>
    <v>       0.83331988       0.91666727       0.57262192 </v>
    <v>       0.66661646       0.83334833       0.42946927 </v>
    <v>       0.66661650      -0.00003376       0.42946967 </v>
    <v>       0.66668003       0.00000883       0.57260906 </v>
    <v>       0.83338333       0.08334791       0.42946927 </v>
    <v>       0.83338342       0.24996669       0.42946967 </v>
    <v>       0.83331990       0.25000928       0.57260906 </v>
    <v>       0.66668014       0.16666694       0.57262193 </v>
    <v>       0.83331985       0.41666669       0.57262192 </v>
    <v>       0.66661636       0.33334767       0.42946926 </v>
    <v>       0.00000010       0.49996587       0.42945140 </v>
    <v>      -0.00000029       0.50000678       0.57260585 </v>
    <v>       0.16661660       0.58334816       0.42946927 </v>
    <v>       0.16661643       0.74996633       0.42946967 </v>
    <v>       0.16668012       0.75000837       0.57260905 </v>
    <v>      -0.00000021       0.66666931       0.57261873 </v>
    <v>       0.16668019       0.91666747       0.57262194 </v>
    <v>       0.00000007       0.83334939       0.42945103 </v>
    <v>       0.00000003      -0.00003485       0.42945140 </v>
    <v>       0.00000010       0.00000685       0.57260583 </v>
    <v>       0.16661663       0.08334825       0.42946927 </v>
    <v>       0.16661630       0.24996648       0.42946968 </v>
    <v>       0.16668023       0.25000890       0.57260906 </v>
    <v>       0.00000014       0.16666902       0.57261873 </v>
    <v>       0.16668028       0.41666665       0.57262192 </v>
    <v>       0.00000031       0.33334865       0.42945103 </v>
   </varray>
  </structure>
  <varray name="forces" >
   <v>       0.00523477      -0.00116006       0.00641362 </v>
   <v>      -0.00877683      -0.00757643      -0.01356014 </v>
   <v>      -0.00023192      -0.00752160      -0.01282915 </v>
   <v>      -0.00016903       0.00154732      -0.00945710 </v>
   <v>      -0.00016970      -0.00657445       0.01937397 </v>
   <v>      -0.00848257       0.01594118      -0.01332666 </v>
   <v>      -0.00023875       0.01504370       0.01964427 </v>
   <v>       0.00506143      -0.00550195      -0.00099467 </v>
   <v>       0.00535013      -0.00085584       0.00641861 </v>
   <v>      -0.00841998      -0.00714583      -0.01356892 </v>
   <v>       0.00021542      -0.00786251      -0.01281593 </v>
   <v>       0.00016570       0.00135545      -0.00946531 </v>
   <v>       0.00007992      -0.00724226       0.01936543 </v>
   <v>      -0.00881719       0.01600651      -0.01331564 </v>
   <v>       0.00002306       0.01586821       0.01965097 </v>
   <v>       0.00499082      -0.00478684      -0.00098825 </v>
   <v>      -0.00517796      -0.00130365       0.00641523 </v>
   <v>       0.00882832      -0.00780203      -0.01355743 </v>
   <v>       0.00524351      -0.00529147      -0.00099311 </v>
   <v>       0.00528918      -0.00068513       0.00641634 </v>
   <v>      -0.00832387      -0.00734677      -0.01356281 </v>
   <v>       0.00849061       0.01594016      -0.01333765 </v>
   <v>      -0.00830073       0.01596769      -0.01332881 </v>
   <v>      -0.00503792      -0.00524511      -0.00100481 </v>
   <v>      -0.00549137      -0.00076518       0.00640405 </v>
   <v>       0.00865117      -0.00716569      -0.01356944 </v>
   <v>       0.00508868      -0.00567327      -0.00098997 </v>
   <v>       0.00511550      -0.00045295       0.00641274 </v>
   <v>      -0.00878385      -0.00770443      -0.01355978 </v>
   <v>       0.00868395       0.01619459      -0.01331780 </v>
   <v>      -0.00885469       0.01642284      -0.01332829 </v>
   <v>      -0.00494613      -0.00506060      -0.00099386 </v>
   <v>      -0.00005033       0.00093841      -0.00945423 </v>
   <v>      -0.00007869      -0.00682796       0.01935395 </v>
   <v>      -0.00502965      -0.00540387      -0.00099185 </v>
   <v>      -0.00512445      -0.00057526       0.00641212 </v>
   <v>       0.00847934      -0.00770761      -0.01356336 </v>
   <v>      -0.00000553       0.01543097       0.01964072 </v>
   <v>       0.00851569       0.01610635      -0.01332410 </v>
   <v>      -0.00001571      -0.00740710      -0.01281109 </v>
   <v>       0.00015865       0.00127031      -0.00945387 </v>
   <v>      -0.00021025      -0.00651314       0.01935620 </v>
   <v>      -0.00532691      -0.00563545      -0.00099576 </v>
   <v>      -0.00529310      -0.00067235       0.00641423 </v>
   <v>       0.00871118      -0.00773998      -0.01357341 </v>
   <v>       0.00011910       0.01522932       0.01964841 </v>
   <v>       0.00885151       0.01626073      -0.01332238 </v>
   <v>      -0.00003138      -0.00705561      -0.01280913 </v>
   <v>      -0.01950012       0.00567615       0.00891156 </v>
   <v>      -0.00616714      -0.00064353       0.00902236 </v>
   <v>      -0.00013759      -0.01490095      -0.02138855 </v>
   <v>      -0.00017484       0.01791846      -0.00735790 </v>
   <v>       0.00017297      -0.00040294      -0.00176756 </v>
   <v>      -0.01243034       0.00408284      -0.00089192 </v>
   <v>       0.00008568       0.00425364       0.00529060 </v>
   <v>      -0.01989210      -0.01724098       0.00865340 </v>
   <v>      -0.01965558       0.00639380       0.00891970 </v>
   <v>      -0.00596410      -0.00062016       0.00904785 </v>
   <v>      -0.00004206      -0.01497113      -0.02139701 </v>
   <v>      -0.00037469       0.01775127      -0.00734891 </v>
   <v>       0.00011802      -0.00088814      -0.00177856 </v>
   <v>      -0.01222289       0.00436601      -0.00089766 </v>
   <v>       0.00022005       0.00474964       0.00528958 </v>
   <v>      -0.01972958      -0.01645297       0.00865707 </v>
   <v>       0.01964909       0.00618211       0.00892384 </v>
   <v>       0.00578424      -0.00029965       0.00903676 </v>
   <v>      -0.01968843      -0.01699187       0.00866018 </v>
   <v>      -0.01965337       0.00648270       0.00892041 </v>
   <v>      -0.00609322      -0.00021825       0.00903902 </v>
   <v>       0.01216151       0.00374802      -0.00089829 </v>
   <v>      -0.01239989       0.00414247      -0.00089823 </v>
   <v>       0.01999856      -0.01734257       0.00866728 </v>
   <v>       0.01972646       0.00663630       0.00892728 </v>
   <v>       0.00607695      -0.00051528       0.00904327 </v>
   <v>      -0.01971907      -0.01690460       0.00865862 </v>
   <v>      -0.01961073       0.00609950       0.00892438 </v>
   <v>      -0.00598822      -0.00106229       0.00903119 </v>
   <v>       0.01240286       0.00433456      -0.00089046 </v>
   <v>      -0.01238061       0.00446819      -0.00090286 </v>
   <v>       0.02011733      -0.01681793       0.00866135 </v>
   <v>      -0.00012467       0.01745889      -0.00735191 </v>
   <v>       0.00038966      -0.00063751      -0.00179310 </v>
   <v>       0.01980145      -0.01717942       0.00866067 </v>
   <v>       0.01983120       0.00671652       0.00892167 </v>
   <v>       0.00592486      -0.00023672       0.00903638 </v>
   <v>       0.00027932       0.00414687       0.00528179 </v>
   <v>       0.01232954       0.00378861      -0.00089223 </v>
   <v>      -0.00010042      -0.01501310      -0.02138601 </v>
   <v>      -0.00007517       0.01803595      -0.00735732 </v>
   <v>      -0.00011633      -0.00066125      -0.00178135 </v>
   <v>       0.01975520      -0.01742582       0.00865984 </v>
   <v>       0.01997913       0.00641853       0.00891920 </v>
   <v>       0.00587124      -0.00052034       0.00903437 </v>
   <v>      -0.00017130       0.00468618       0.00528582 </v>
   <v>       0.01218194       0.00451642      -0.00089132 </v>
   <v>      -0.00040394      -0.01436760      -0.02139045 </v>
  </varray>
  <varray name="stress" >
   <v>       3.77149833      -0.00005626       0.00001070 </v>
   <v>      -0.00006189       4.15829190       0.19745410 </v>
   <v>       0.00000945       0.19744889      -1.53196009 </v>
  </varray>
  <energy>
   <i name="e_fr_energy">   -970.75052556</i>
   <i name="e_wo_entrp">   -970.75051963</i>
   <i name="e_0_energy">     -0.00001187</i>
  </energy>
 </calculation>
 <calculation>
  <scstep>
   <time name="diag">   27.97   27.98</time>
   <time name="diis">   94.31   94.35</time>
   <time name="orth">    2.80    2.80</time>
   <time name="total">  135.87  135.92</time>
   <energy>
    <i name="alphaZ">    293.36520310</i>
    <i name="ewald">  71745.78458619</i>
    <i name="hartreedc"> -85338.65221835</i>
    <i name="XCdc">   1399.57812125</i>
    <i name="pawpsdc">   2549.46282821</i>
    <i name="pawaedc">  -2685.90102161</i>
    <i name="eentropy">     -0.00001217</i>
    <i name="bandstr">  -3016.07577298</i>
    <i name="atom">  14081.68569326</i>
    <i name="e_fr_energy">   -970.75259310</i>
    <i name="e_wo_entrp">   -970.75258093</i>
    <i name="e_0_energy">   -970.75258701</i>
   </energy>
  </scstep>
  <scstep>
   <time name="diag">   28.21   28.22</time>
   <time name="diis">   65.20   65.21</time>
   <time name="orth">    2.76    2.76</time>
   <time name="total">  106.92  106.95</time>
   <energy>
    <i name="e_fr_energy">   -970.75235364</i>
    <i name="e_wo_entrp">   -970.75234148</i>
    <i name="e_0_energy">   -970.75234756</i>
   </energy>
  </scstep>
  <scstep>
   <time name="diag">   27.99   28.00</time>
   <time name="diis">   61.85   61.88</time>
   <time name="orth">    2.80    2.80</time>
   <time name="total">  103.54  103.58</time>
   <energy>
    <i name="e_fr_energy">   -970.75236051</i>
    <i name="e_wo_entrp">   -970.75234835</i>
    <i name="e_0_energy">   -970.75235443</i>
   </energy>
  </scstep>
  <scstep>
   <time name="diag">   27.96   27.97</time>
   <time name="diis">   47.56   47.58</time>
   <time name="orth">    2.72    2.72</time>
   <time name="total">   78.55   78.58</time>
   <energy>
    <i name="alphaZ">    293.36520310</i>
    <i name="ewald">  71745.78458619</i>
    <i name="hartreedc"> -85338.16482053</i>
    <i name="XCdc">   1399.61120270</i>
    <i name="pawpsdc">   2545.85454407</i>
    <i name="pawaedc">  -2682.20734504</i>
    <i name="eentropy">     -0.00001216</i>
    <i name="bandstr">  -3016.68141385</i>
    <i name="atom">  14081.68569326</i>
    <i name="e_fr_energy">   -970.75236226</i>
    <i name="e_wo_entrp">   -970.75235010</i>
    <i name="e_0_energy">   -970.75235618</i>
   </energy>
  </scstep>
  <structure>
   <crystal>
    <varray name="basis" >
     <v>       7.33812550       0.00000006      -0.00000001 </v>
     <v>       0.00000007       8.47288318       0.00023529 </v>
     <v>       0.00000001       0.00064867      23.39249346 </v>
    </varray>
    <i name="volume">   1454.43015460</i>
    <varray name="rec_basis" >
     <v>       0.13627458       0.00000000       0.00000000 </v>
     <v>       0.00000000       0.11802358      -0.00000327 </v>
     <v>       0.00000000      -0.00000119       0.04274876 </v>
    </varray>
   </crystal>
   <varray name="positions" >
    <v>       0.33330572       0.49999254       0.14315621 </v>
    <v>       0.33333517       0.50002787       0.28630782 </v>
    <v>       0.50000013       0.58333123       0.14313203 </v>
    <v>       0.50000010       0.74999471       0.14314182 </v>
    <v>       0.50000010       0.75002500       0.28631236 </v>
    <v>       0.33333499       0.66665247       0.28630811 </v>
    <v>       0.50000013       0.91665549       0.28631264 </v>
    <v>       0.33330575       0.83333366       0.14314640 </v>
    <v>       0.33330565      -0.00000771       0.14315621 </v>
    <v>       0.33333499       0.00002782       0.28630782 </v>
    <v>       0.49999987       0.08333122       0.14313203 </v>
    <v>       0.49999989       0.24999462       0.14314182 </v>
    <v>       0.49999995       0.25002545       0.28631235 </v>
    <v>       0.33333517       0.16665260       0.28630810 </v>
    <v>       0.49999997       0.41665498       0.28631264 </v>
    <v>       0.33330579       0.33333319       0.14314639 </v>
    <v>       0.66669426       0.49999261       0.14315621 </v>
    <v>       0.66666479       0.50002798       0.28630782 </v>
    <v>       0.83330565       0.58333358       0.14314639 </v>
    <v>       0.83330570       0.74999236       0.14315621 </v>
    <v>       0.83333492       0.75002780       0.28630782 </v>
    <v>       0.66666500       0.66665246       0.28630811 </v>
    <v>       0.83333488       0.91665255       0.28630811 </v>
    <v>       0.66669424       0.83333355       0.14314640 </v>
    <v>       0.66669442      -0.00000777       0.14315621 </v>
    <v>       0.66666488       0.00002784       0.28630782 </v>
    <v>       0.83330575       0.08333358       0.14314639 </v>
    <v>       0.83330579       0.24999207       0.14315620 </v>
    <v>       0.83333520       0.25002812       0.28630782 </v>
    <v>       0.66666490       0.16665251       0.28630811 </v>
    <v>       0.83333520       0.41665223       0.28630810 </v>
    <v>       0.66669418       0.33333333       0.14314639 </v>
    <v>       0.00000001       0.49999496       0.14314181 </v>
    <v>       0.00000005       0.50002507       0.28631235 </v>
    <v>       0.16669421       0.58333362       0.14314640 </v>
    <v>       0.16669420       0.74999231       0.14315621 </v>
    <v>       0.16666499       0.75002799       0.28630782 </v>
    <v>       0.00000000       0.66665520       0.28631264 </v>
    <v>       0.16666500       0.91665249       0.28630811 </v>
    <v>       0.00000000       0.83333116       0.14313202 </v>
    <v>      -0.00000009      -0.00000533       0.14314182 </v>
    <v>       0.00000012       0.00002506       0.28631235 </v>
    <v>       0.16669439       0.08333356       0.14314639 </v>
    <v>       0.16669433       0.24999216       0.14315620 </v>
    <v>       0.16666485       0.25002814       0.28630782 </v>
    <v>      -0.00000006       0.16665546       0.28631264 </v>
    <v>       0.16666480       0.41665230       0.28630810 </v>
    <v>       0.00000002       0.33333086       0.14313203 </v>
    <v>       0.33337144       0.49997488       0.42946733 </v>
    <v>       0.33332320       0.50000660       0.57261001 </v>
    <v>       0.50000009       0.58334550       0.42945310 </v>
    <v>       0.50000012       0.74997368       0.42945339 </v>
    <v>       0.49999991       0.75000498       0.57260756 </v>
    <v>       0.33332308       0.66666685       0.57261982 </v>
    <v>       0.49999994       0.91666868       0.57261737 </v>
    <v>       0.33337155       0.83334467       0.42946702 </v>
    <v>       0.33337153      -0.00002560       0.42946732 </v>
    <v>       0.33332308       0.00000679       0.57261000 </v>
    <v>       0.50000004       0.08334534       0.42945311 </v>
    <v>       0.50000021       0.24997359       0.42945339 </v>
    <v>       0.49999992       0.25000532       0.57260756 </v>
    <v>       0.33332296       0.16666689       0.57261982 </v>
    <v>       0.49999989       0.41666830       0.57261738 </v>
    <v>       0.33337145       0.33334418       0.42946702 </v>
    <v>       0.66662846       0.49997463       0.42946733 </v>
    <v>       0.66667704       0.50000644       0.57261001 </v>
    <v>       0.83337144       0.58334454       0.42946701 </v>
    <v>       0.83337152       0.74997452       0.42946733 </v>
    <v>       0.83332318       0.75000646       0.57261001 </v>
    <v>       0.66667709       0.66666700       0.57261981 </v>
    <v>       0.83332308       0.91666696       0.57261982 </v>
    <v>       0.66662840       0.83334472       0.42946701 </v>
    <v>       0.66662843      -0.00002573       0.42946732 </v>
    <v>       0.66667685       0.00000673       0.57261001 </v>
    <v>       0.83337144       0.08334433       0.42946702 </v>
    <v>       0.83337151       0.24997454       0.42946733 </v>
    <v>       0.83332309       0.25000701       0.57261001 </v>
    <v>       0.66667693       0.16666692       0.57261982 </v>
    <v>       0.83332305       0.41666666       0.57261981 </v>
    <v>       0.66662832       0.33334436       0.42946701 </v>
    <v>       0.00000008       0.49997385       0.42945339 </v>
    <v>      -0.00000022       0.50000503       0.57260756 </v>
    <v>       0.16662850       0.58334466       0.42946702 </v>
    <v>       0.16662837       0.74997441       0.42946733 </v>
    <v>       0.16667692       0.75000645       0.57261000 </v>
    <v>      -0.00000016       0.66666859       0.57261738 </v>
    <v>       0.16667698       0.91666712       0.57261983 </v>
    <v>       0.00000005       0.83334553       0.42945310 </v>
    <v>       0.00000003      -0.00002657       0.42945339 </v>
    <v>       0.00000008       0.00000522       0.57260755 </v>
    <v>       0.16662853       0.08334459       0.42946702 </v>
    <v>       0.16662828       0.24997438       0.42946733 </v>
    <v>       0.16667700       0.25000672       0.57261000 </v>
    <v>       0.00000011       0.16666851       0.57261738 </v>
    <v>       0.16667704       0.41666663       0.57261982 </v>
    <v>       0.00000023       0.33334510       0.42945311 </v>
   </varray>
  </structure>
  <varray name="forces" >
   <v>       0.00035337      -0.00160240       0.00820062 </v>
   <v>      -0.01086761      -0.00452612      -0.01247987 </v>
   <v>      -0.00004235      -0.00516411      -0.01754934 </v>
   <v>      -0.00002418       0.00008604      -0.01163923 </v>
   <v>      -0.00001524       0.00000926       0.02003674 </v>
   <v>      -0.00795801       0.01043804      -0.01321234 </v>
   <v>      -0.00003697       0.01015345       0.02038581 </v>
   <v>       0.00020522      -0.00378161      -0.00173738 </v>
   <v>       0.00035668      -0.00135573       0.00819703 </v>
   <v>      -0.01074485      -0.00441606      -0.01247877 </v>
   <v>       0.00003930      -0.00524303      -0.01754747 </v>
   <v>       0.00002130       0.00002432      -0.01165036 </v>
   <v>       0.00002635      -0.00030311       0.02003531 </v>
   <v>      -0.00805688       0.01046291      -0.01321158 </v>
   <v>       0.00000260       0.01049879       0.02038357 </v>
   <v>       0.00017337      -0.00349221      -0.00173610 </v>
   <v>      -0.00032568      -0.00162426       0.00819740 </v>
   <v>       0.01086409      -0.00458387      -0.01248045 </v>
   <v>       0.00022884      -0.00363040      -0.00173822 </v>
   <v>       0.00032678      -0.00144974       0.00819830 </v>
   <v>      -0.01077032      -0.00442352      -0.01247880 </v>
   <v>       0.00796813       0.01042693      -0.01320848 </v>
   <v>      -0.00796710       0.01035275      -0.01320688 </v>
   <v>      -0.00018225      -0.00373924      -0.00173273 </v>
   <v>      -0.00038777      -0.00134001       0.00819811 </v>
   <v>       0.01079799      -0.00442076      -0.01247719 </v>
   <v>       0.00020910      -0.00373887      -0.00173216 </v>
   <v>       0.00030244      -0.00140614       0.00819888 </v>
   <v>      -0.01084568      -0.00465187      -0.01247787 </v>
   <v>       0.00801673       0.01049954      -0.01320752 </v>
   <v>      -0.00803877       0.01063536      -0.01321009 </v>
   <v>      -0.00018552      -0.00354457      -0.00173491 </v>
   <v>      -0.00002503      -0.00012845      -0.01164667 </v>
   <v>      -0.00001208      -0.00012380       0.02003557 </v>
   <v>      -0.00020052      -0.00364855      -0.00173970 </v>
   <v>      -0.00031053      -0.00141151       0.00820095 </v>
   <v>       0.01077877      -0.00448620      -0.01247903 </v>
   <v>      -0.00000204       0.01031306       0.02038248 </v>
   <v>       0.00799245       0.01039395      -0.01321180 </v>
   <v>      -0.00002426      -0.00524888      -0.01754456 </v>
   <v>       0.00004978       0.00012078      -0.01164919 </v>
   <v>      -0.00005652      -0.00005879       0.02003521 </v>
   <v>      -0.00025540      -0.00371563      -0.00173403 </v>
   <v>      -0.00032063      -0.00145541       0.00819619 </v>
   <v>       0.01081750      -0.00462858      -0.01247901 </v>
   <v>       0.00003415       0.01025304       0.02038722 </v>
   <v>       0.00805060       0.01060957      -0.01321136 </v>
   <v>       0.00001117      -0.00504860      -0.01755504 </v>
   <v>      -0.01239373       0.00057708       0.00937668 </v>
   <v>      -0.00351412       0.00114053       0.00068572 </v>
   <v>      -0.00001698      -0.01382684      -0.01939246 </v>
   <v>      -0.00001831       0.01110611      -0.01580219 </v>
   <v>       0.00004035       0.00110035      -0.00342264 </v>
   <v>      -0.00340342       0.00412339       0.01067214 </v>
   <v>      -0.00001107       0.00420396       0.00626911 </v>
   <v>      -0.01248437      -0.01083666       0.00904528 </v>
   <v>      -0.01241870       0.00088997       0.00938250 </v>
   <v>      -0.00348699       0.00119515       0.00068819 </v>
   <v>       0.00001683      -0.01389683      -0.01939404 </v>
   <v>      -0.00005973       0.01101326      -0.01580166 </v>
   <v>      -0.00001348       0.00081964      -0.00341790 </v>
   <v>      -0.00336282       0.00418983       0.01067093 </v>
   <v>       0.00004930       0.00443892       0.00626887 </v>
   <v>      -0.01245926      -0.01051281       0.00904692 </v>
   <v>       0.01240681       0.00065231       0.00937870 </v>
   <v>       0.00344434       0.00120097       0.00068603 </v>
   <v>      -0.01244282      -0.01067448       0.00904714 </v>
   <v>      -0.01244227       0.00080990       0.00937641 </v>
   <v>      -0.00350956       0.00134102       0.00068647 </v>
   <v>       0.00336857       0.00406819       0.01067301 </v>
   <v>      -0.00339417       0.00406786       0.01066995 </v>
   <v>       0.01249742      -0.01084465       0.00904541 </v>
   <v>       0.01242038       0.00089229       0.00938159 </v>
   <v>       0.00350344       0.00118241       0.00068933 </v>
   <v>      -0.01245490      -0.01070001       0.00905048 </v>
   <v>      -0.01242867       0.00068421       0.00937828 </v>
   <v>      -0.00345880       0.00096759       0.00068980 </v>
   <v>       0.00339768       0.00423060       0.01067229 </v>
   <v>      -0.00340470       0.00429452       0.01067260 </v>
   <v>       0.01252426      -0.01057333       0.00904421 </v>
   <v>       0.00001100       0.01091280      -0.01580126 </v>
   <v>       0.00005877       0.00095618      -0.00341966 </v>
   <v>       0.01243939      -0.01067706       0.00904576 </v>
   <v>       0.01246274       0.00085944       0.00937907 </v>
   <v>       0.00346817       0.00132297       0.00069155 </v>
   <v>       0.00004045       0.00422725       0.00626844 </v>
   <v>       0.00340526       0.00402563       0.01066684 </v>
   <v>      -0.00001573      -0.01400399      -0.01938879 </v>
   <v>       0.00001516       0.01118989      -0.01579989 </v>
   <v>      -0.00002505       0.00098492      -0.00341448 </v>
   <v>       0.01242940      -0.01077721       0.00904706 </v>
   <v>       0.01250000       0.00073034       0.00937630 </v>
   <v>       0.00346644       0.00104955       0.00068902 </v>
   <v>      -0.00002373       0.00437508       0.00626560 </v>
   <v>       0.00337059       0.00430450       0.01067561 </v>
   <v>      -0.00006392      -0.01369050      -0.01938958 </v>
  </varray>
  <varray name="stress" >
   <v>       0.03991891      -0.00008320       0.00000372 </v>
   <v>      -0.00007817       0.24780479       0.20236895 </v>
   <v>       0.00000432       0.20236994      -1.70410784 </v>
  </varray>
  <energy>
   <i name="e_fr_energy">   -970.75236226</i>
   <i name="e_wo_entrp">   -970.75235618</i>
   <i name="e_0_energy">     -0.00001216</i>
  </energy>
  <eigenvalues>
   <array>
    <dimension dim="1">band</dimension>
    <dimension dim="2">kpoint</dimension>
    <dimension dim="3">spin</dimension>
    <field>eigene</field>
    <field>occ</field>
    <set>
     <set comment="spin 1">
      <set comment="kpoint 1">
       <r> -18.2980  1.0000</r>
       <r> -18.2190  1.0000</r>
       <r> -18.1195  1.0000</r>
       <r> -18.0376  1.0000</r>
       <r> -17.1792  1.0000</r>
       <r> -17.1057  1.0000</r>
       <r> -17.0132  1.0000</r>
       <r> -16.9371  1.0000</r>
       <r> -16.4416  1.0000</r>
       <r> -16.3716  1.0000</r>
       <r> -16.3208  1.0000</r>
       <r> -16.3197  1.0000</r>
       <r> -16.2836  1.0000</r>
       <r> -16.2514  1.0000</r>
       <r> -16.2503  1.0000</r>
       <r> -16.2112  1.0000</r>
       <r> -16.1642  1.0000</r>
       <r> -16.1630  1.0000</r>
       <r> -16.0923  1.0000</r>
       <r> -16.0912  1.0000</r>
       <r> -15.2310  1.0000</r>
       <r> -15.2298  1.0000</r>
       <r> -15.1668  1.0000</r>
       <r> -15.1656  1.0000</r>
       <r> -15.0861  1.0000</r>
       <r> -15.0849  1.0000</r>
       <r> -15.0198  1.0000</r>
       <r> -15.0187  1.0000</r>
       <r> -14.5198  1.0000</r>
       <r> -14.5186  1.0000</r>
       <r> -14.4590  1.0000</r>
       <r> -14.4579  1.0000</r>
       <r> -14.3828  1.0000</r>
       <r> -14.3816  1.0000</r>
       <r> -14.3202  1.0000</r>
       <r> -14.3191  1.0000</r>
       <r> -13.2752  1.0000</r>
       <r> -13.2237  1.0000</r>
       <r> -13.1598  1.0000</r>
       <r> -13.1081  1.0000</r>
       <r> -11.6607  1.0000</r>
       <r> -11.6354  1.0000</r>
       <r> -11.6344  1.0000</r>
       <r> -11.6181  1.0000</r>
       <r> -11.5971  1.0000</r>
       <r> -11.5961  1.0000</r>
       <r> -11.5640  1.0000</r>
       <r> -11.5514  1.0000</r>
       <r> -11.5503  1.0000</r>
       <r> -11.5194  1.0000</r>
       <r> -11.5159  1.0000</r>
       <r> -11.5150  1.0000</r>
       <r> -10.9035  1.0000</r>
       <r> -10.9032  1.0000</r>
       <r> -10.8826  1.0000</r>
       <r> -10.8822  1.0000</r>
       <r> -10.8552  1.0000</r>
       <r> -10.8549  1.0000</r>
       <r> -10.8321  1.0000</r>
       <r> -10.8319  1.0000</r>
       <r>  -9.6707  1.0000</r>
       <r>  -9.6702  1.0000</r>
       <r>  -9.6325  1.0000</r>
       <r>  -9.6321  1.0000</r>
       <r>  -9.5842  1.0000</r>
       <r>  -9.5838  1.0000</r>
       <r>  -9.5443  1.0000</r>
       <r>  -9.5437  1.0000</r>
       <r>  -9.3127  1.0000</r>
       <r>  -9.3121  1.0000</r>
       <r>  -9.2993  1.0000</r>
       <r>  -9.2988  1.0000</r>
       <r>  -9.2795  1.0000</r>
       <r>  -9.2790  1.0000</r>
       <r>  -9.2610  1.0000</r>
       <r>  -9.2604  1.0000</r>
       <r>  -8.9978  1.0000</r>
       <r>  -8.9972  1.0000</r>
       <r>  -8.9613  1.0000</r>
       <r>  -8.9609  1.0000</r>
       <r>  -8.9153  1.0000</r>
       <r>  -8.9148  1.0000</r>
       <r>  -8.8771  1.0000</r>
       <r>  -8.8765  1.0000</r>
       <r>  -7.2807  1.0000</r>
       <r>  -6.9548  1.0000</r>
       <r>  -6.9257  1.0000</r>
       <r>  -6.8897  1.0000</r>
       <r>  -6.8608  1.0000</r>
       <r>  -6.8117  1.0000</r>
       <r>  -6.5696  1.0000</r>
       <r>  -6.5689  1.0000</r>
       <r>  -6.5504  1.0000</r>
       <r>  -6.5497  1.0000</r>
       <r>  -6.5251  1.0000</r>
       <r>  -6.5246  1.0000</r>
       <r>  -6.5039  1.0000</r>
       <r>  -6.5030  1.0000</r>
       <r>  -6.1839  1.0000</r>
       <r>  -5.9141  1.0000</r>
       <r>  -5.8544  1.0000</r>
       <r>  -5.8538  1.0000</r>
       <r>  -5.8355  1.0000</r>
       <r>  -5.8348  1.0000</r>
       <r>  -5.8116  1.0000</r>
       <r>  -5.8109  1.0000</r>
       <r>  -5.7918  1.0000</r>
       <r>  -5.7911  1.0000</r>
       <r>  -5.6228  1.0000</r>
       <r>  -5.4656  1.0000</r>
       <r>  -5.3034  1.0000</r>
       <r>  -5.2805  1.0000</r>
       <r>  -5.2538  1.0000</r>
       <r>  -5.2318  1.0000</r>
       <r>  -5.1693  1.0000</r>
       <r>  -5.1569  1.0000</r>
       <r>  -5.1397  1.0000</r>
       <r>  -5.1243  1.0000</r>
       <r>  -5.0802  1.0000</r>
       <r>  -5.0800  1.0000</r>
       <r>  -5.0663  1.0000</r>
       <r>  -5.0662  1.0000</r>
       <r>  -5.0490  1.0000</r>
       <r>  -5.0489  1.0000</r>
       <r>  -5.0350  1.0000</r>
       <r>  -5.0347  1.0000</r>
       <r>  -5.0267  1.0000</r>
       <r>  -4.9397  1.0000</r>
       <r>  -4.9394  1.0000</r>
       <r>  -4.9254  1.0000</r>
       <r>  -4.9249  1.0000</r>
       <r>  -4.9072  1.0000</r>
       <r>  -4.9067  1.0000</r>
       <r>  -4.8921  1.0000</r>
       <r>  -4.8917  1.0000</r>
[...]
       <r>  -7.3137  1.0000</r>
       <r>  -7.2880  1.0000</r>
       <r>  -7.2558  1.0000</r>
       <r>  -7.2293  1.0000</r>
       <r>  -7.1145  1.0000</r>
       <r>  -7.1028  1.0000</r>
       <r>  -7.0852  1.0000</r>
       <r>  -7.0686  1.0000</r>
       <r>  -6.7789  1.0000</r>
       <r>  -6.3233  1.0000</r>
       <r>  -6.3167  1.0000</r>
       <r>  -6.2551  1.0000</r>
       <r>  -6.2346  1.0000</r>
       <r>  -6.2089  1.0000</r>
       <r>  -6.1877  1.0000</r>
       <r>  -6.0083  1.0000</r>
       <r>  -5.9884  1.0000</r>
       <r>  -5.9848  1.0000</r>
       <r>  -5.9726  1.0000</r>
       <r>  -5.9634  1.0000</r>
       <r>  -5.9614  1.0000</r>
       <r>  -5.9429  1.0000</r>
       <r>  -5.9313  1.0000</r>
       <r>  -5.9059  1.0000</r>
       <r>  -5.8794  1.0000</r>
       <r>  -5.8678  1.0000</r>
       <r>  -5.8616  1.0000</r>
       <r>  -5.8376  1.0000</r>
       <r>  -5.8168  1.0000</r>
       <r>  -5.6989  1.0000</r>
       <r>  -5.5249  1.0000</r>
       <r>  -5.5228  1.0000</r>
       <r>  -5.4990  1.0000</r>
       <r>  -5.4825  1.0000</r>
       <r>  -5.4601  1.0000</r>
       <r>  -5.4403  1.0000</r>
       <r>  -5.3442  1.0000</r>
       <r>  -5.3285  1.0000</r>
       <r>  -5.3087  1.0000</r>
       <r>  -5.2925  1.0000</r>
       <r>  -5.2598  1.0000</r>
       <r>  -5.1689  1.0000</r>
       <r>  -5.1484  1.0000</r>
       <r>  -5.1480  1.0000</r>
       <r>  -5.1225  1.0000</r>
       <r>  -5.0995  1.0000</r>
       <r>  -5.0823  1.0000</r>
       <r>  -4.9220  1.0000</r>
       <r>  -4.7188  1.0000</r>
       <r>  -4.4937  1.0000</r>
       <r>  -4.3900  1.0000</r>
       <r>  -4.1882  1.0000</r>
       <r>  -4.1779  1.0000</r>
       <r>  -4.1659  1.0000</r>
       <r>  -4.1565  1.0000</r>
       <r>  -3.9727  1.0000</r>
       <r>  -3.8924  1.0000</r>
       <r>  -3.8801  1.0000</r>
       <r>  -3.8647  1.0000</r>
       <r>  -3.8518  1.0000</r>
       <r>  -3.6996  1.0000</r>
       <r>  -3.4339  1.0000</r>
       <r>  -3.4225  1.0000</r>
       <r>  -3.4085  1.0000</r>
       <r>  -3.3970  1.0000</r>
       <r>  -3.3424  1.0000</r>
       <r>  -3.3371  1.0000</r>
       <r>  -3.3283  1.0000</r>
       <r>  -3.3197  1.0000</r>
       <r>  -3.2962  1.0000</r>
       <r>  -3.2589  1.0000</r>
       <r>  -3.2481  1.0000</r>
       <r>  -3.2340  1.0000</r>
       <r>  -3.2219  1.0000</r>
       <r>  -2.9498  1.0000</r>
       <r>  -2.9316  1.0000</r>
       <r>  -2.7664  1.0000</r>
       <r>  -2.5915  1.0000</r>
       <r>  -2.5840  1.0000</r>
       <r>  -2.5822  1.0000</r>
       <r>  -2.5737  1.0000</r>
       <r>  -2.5649  1.0000</r>
       <r>  -2.5629  1.0000</r>
       <r>  -2.5515  1.0000</r>
       <r>  -2.5148  1.0000</r>
       <r>  -2.3063  1.0000</r>
       <r>  -2.2259  1.0000</r>
       <r>  -2.1557  1.0000</r>
       <r>  -2.0585  1.0000</r>
       <r>  -2.0574  1.0000</r>
       <r>  -1.7754  1.0000</r>
       <r>  -1.7731  1.0000</r>
       <r>  -1.6963  1.0000</r>
       <r>  -1.6380  1.0000</r>
       <r>  -1.6213  1.0000</r>
       <r>  -1.4291  1.0000</r>
       <r>  -1.3988  1.0000</r>
       <r>  -1.3128  1.0000</r>
       <r>  -1.1535  1.0000</r>
       <r>  -1.0511  1.0000</r>
       <r>  -0.9863  1.0000</r>
       <r>  -0.9263  1.0000</r>
       <r>  -0.7746  1.0000</r>
       <r>  -0.6950  1.0000</r>
       <r>  -0.6166  1.0000</r>
       <r>  -0.5678  1.0000</r>
       <r>  -0.4569  1.0000</r>
       <r>  -0.2363  1.0000</r>
       <r>   2.7014  0.0000</r>
       <r>   2.7273  0.0000</r>
       <r>   2.7487  0.0000</r>
       <r>   2.8193  0.0000</r>
       <r>   2.9315  0.0000</r>
       <r>   3.0050  0.0000</r>
       <r>   3.1547  0.0000</r>
       <r>   3.1911  0.0000</r>
       <r>   3.4646  0.0000</r>
       <r>   3.6356  0.0000</r>
       <r>   3.7661  0.0000</r>
       <r>   3.8445  0.0000</r>
       <r>   3.8473  0.0000</r>
       <r>   3.9813  0.0000</r>
       <r>   4.0085  0.0000</r>
       <r>   4.0558  0.0000</r>
       <r>   4.3028  0.0000</r>
       <r>   4.3528  0.0000</r>
       <r>   4.4529  0.0000</r>
       <r>   4.5978  0.0000</r>
       <r>   4.6146  0.0000</r>
       <r>   4.6570  0.0000</r>
       <r>   4.8168  0.0000</r>
       <r>   4.9322  0.0000</r>
       <r>   4.9766  0.0000</r>
       <r>   5.1611  0.0000</r>
       <r>   5.1652  0.0000</r>
       <r>   5.2989  0.0000</r>
       <r>   5.3606  0.0000</r>
       <r>   5.4565  0.0000</r>
       <r>   5.6115  0.0000</r>
       <r>   5.6559  0.0000</r>
       <r>   5.8537  0.0000</r>
       <r>   5.9185  0.0000</r>
       <r>   6.1099  0.0000</r>
       <r>   6.1368  0.0000</r>
       <r>   6.2338  0.0000</r>
       <r>   6.4315  0.0000</r>
       <r>   6.4936  0.0000</r>
       <r>   6.7232  0.0000</r>
       <r>   6.9134  0.0000</r>
       <r>   6.9845  0.0000</r>
       <r>   7.2802  0.0000</r>
       <r>   7.3937  0.0000</r>
       <r>   7.7415  0.0000</r>
       <r>   7.8664  0.0000</r>
       <r>   7.9058  0.0000</r>
       <r>   8.3225  0.0000</r>
       <r>   8.3836  0.0000</r>
       <r>   8.6506  0.0000</r>
       <r>   8.7080  0.0000</r>
       <r>   8.9763  0.0000</r>
       <r>   9.3178  0.0000</r>
       <r>   9.5715  0.0000</r>
       <r>   9.6261  0.0000</r>
       <r>   9.7844  0.0000</r>
      </set>
      <set comment="kpoint 6">
       <r> -17.8889  1.0000</r>
       <r> -17.8120  1.0000</r>
       <r> -17.7151  1.0000</r>
       <r> -17.6353  1.0000</r>
       <r> -17.5162  1.0000</r>
       <r> -17.4410  1.0000</r>
       <r> -17.3464  1.0000</r>
       <r> -17.2686  1.0000</r>
       <r> -17.2273  1.0000</r>
       <r> -17.1536  1.0000</r>
       <r> -17.0607  1.0000</r>
       <r> -16.9844  1.0000</r>
       <r> -16.8574  1.0000</r>
       <r> -16.7855  1.0000</r>
       <r> -16.6949  1.0000</r>
       <r> -16.6204  1.0000</r>
       <r> -15.3181  1.0000</r>
       <r> -15.2534  1.0000</r>
       <r> -15.1722  1.0000</r>
       <r> -15.1056  1.0000</r>
       <r> -14.6852  1.0000</r>
       <r> -14.6441  1.0000</r>
       <r> -14.6237  1.0000</r>
       <r> -14.5828  1.0000</r>
       <r> -14.5464  1.0000</r>
       <r> -14.5058  1.0000</r>
       <r> -14.4830  1.0000</r>
       <r> -14.4425  1.0000</r>
       <r> -14.2900  1.0000</r>
       <r> -14.2522  1.0000</r>
       <r> -14.2305  1.0000</r>
       <r> -14.1928  1.0000</r>
       <r> -14.1558  1.0000</r>
       <r> -14.1183  1.0000</r>
       <r> -14.0945  1.0000</r>
       <r> -14.0572  1.0000</r>
       <r> -13.6402  1.0000</r>
       <r> -13.5840  1.0000</r>
       <r> -13.5135  1.0000</r>
       <r> -13.4557  1.0000</r>
       <r> -12.8387  1.0000</r>
       <r> -12.7889  1.0000</r>
       <r> -12.7269  1.0000</r>
       <r> -12.6766  1.0000</r>
       <r> -12.6625  1.0000</r>
       <r> -12.6269  1.0000</r>
       <r> -12.5877  1.0000</r>
       <r> -12.5608  1.0000</r>
       <r> -11.7902  1.0000</r>
       <r> -11.7722  1.0000</r>
       <r> -11.7418  1.0000</r>
       <r> -11.7115  1.0000</r>
       <r> -11.0645  1.0000</r>
       <r> -11.0256  1.0000</r>
       <r> -10.9757  1.0000</r>
       <r> -10.9338  1.0000</r>
       <r> -10.2897  1.0000</r>
       <r> -10.2484  1.0000</r>
       <r> -10.1962  1.0000</r>
       <r> -10.1530  1.0000</r>
       <r> -10.0622  1.0000</r>
       <r> -10.0216  1.0000</r>
       <r>  -9.9712  1.0000</r>
       <r>  -9.9303  1.0000</r>
       <r>  -9.6882  1.0000</r>
       <r>  -9.6559  1.0000</r>
       <r>  -9.6163  1.0000</r>
       <r>  -9.5847  1.0000</r>
       <r>  -9.3765  1.0000</r>
       <r>  -9.3401  1.0000</r>
       <r>  -9.2938  1.0000</r>
       <r>  -9.2554  1.0000</r>
       <r>  -8.5068  1.0000</r>
       <r>  -8.4738  1.0000</r>
       <r>  -8.4729  1.0000</r>
       <r>  -8.4541  1.0000</r>
       <r>  -8.4311  1.0000</r>
       <r>  -8.4310  1.0000</r>
       <r>  -8.4135  1.0000</r>
       <r>  -8.3971  1.0000</r>
       <r>  -7.7684  1.0000</r>
       <r>  -7.7464  1.0000</r>
       <r>  -7.7169  1.0000</r>
       <r>  -7.6910  1.0000</r>
       <r>  -7.3137  1.0000</r>
       <r>  -7.2880  1.0000</r>
       <r>  -7.2558  1.0000</r>
       <r>  -7.2293  1.0000</r>
       <r>  -7.1145  1.0000</r>
       <r>  -7.1028  1.0000</r>
       <r>  -7.0852  1.0000</r>
       <r>  -7.0686  1.0000</r>
       <r>  -6.7789  1.0000</r>
       <r>  -6.3233  1.0000</r>
       <r>  -6.3167  1.0000</r>
       <r>  -6.2551  1.0000</r>
       <r>  -6.2346  1.0000</r>
       <r>  -6.2089  1.0000</r>
       <r>  -6.1877  1.0000</r>
       <r>  -6.0083  1.0000</r>
       <r>  -5.9884  1.0000</r>
       <r>  -5.9848  1.0000</r>
       <r>  -5.9726  1.0000</r>
       <r>  -5.9634  1.0000</r>
       <r>  -5.9614  1.0000</r>
       <r>  -5.9429  1.0000</r>
       <r>  -5.9313  1.0000</r>
       <r>  -5.9059  1.0000</r>
       <r>  -5.8794  1.0000</r>
       <r>  -5.8678  1.0000</r>
       <r>  -5.8616  1.0000</r>
       <r>  -5.8376  1.0000</r>
       <r>  -5.8168  1.0000</r>
       <r>  -5.6989  1.0000</r>
       <r>  -5.5249  1.0000</r>
       <r>  -5.5228  1.0000</r>
       <r>  -5.4990  1.0000</r>
       <r>  -5.4825  1.0000</r>
       <r>  -5.4601  1.0000</r>
       <r>  -5.4403  1.0000</r>
       <r>  -5.3442  1.0000</r>
       <r>  -5.3285  1.0000</r>
       <r>  -5.3087  1.0000</r>
       <r>  -5.2925  1.0000</r>
       <r>  -5.2598  1.0000</r>
       <r>  -5.1689  1.0000</r>
       <r>  -5.1484  1.0000</r>
       <r>  -5.1480  1.0000</r>
       <r>  -5.1225  1.0000</r>
       <r>  -5.0995  1.0000</r>
       <r>  -5.0823  1.0000</r>
       <r>  -4.9220  1.0000</r>
       <r>  -4.7188  1.0000</r>
       <r>  -4.4937  1.0000</r>
       <r>  -4.3900  1.0000</r>
       <r>  -4.1882  1.0000</r>
       <r>  -4.1779  1.0000</r>
       <r>  -4.1659  1.0000</r>
       <r>  -4.1565  1.0000</r>
       <r>  -3.9727  1.0000</r>
       <r>  -3.8924  1.0000</r>
       <r>  -3.8801  1.0000</r>
       <r>  -3.8647  1.0000</r>
       <r>  -3.8518  1.0000</r>
       <r>  -3.6996  1.0000</r>
       <r>  -3.4339  1.0000</r>
       <r>  -3.4225  1.0000</r>
       <r>  -3.4085  1.0000</r>
       <r>  -3.3970  1.0000</r>
       <r>  -3.3424  1.0000</r>
       <r>  -3.3371  1.0000</r>
       <r>  -3.3283  1.0000</r>
       <r>  -3.3197  1.0000</r>
       <r>  -3.2962  1.0000</r>
       <r>  -3.2589  1.0000</r>
       <r>  -3.2481  1.0000</r>
       <r>  -3.2340  1.0000</r>
       <r>  -3.2219  1.0000</r>
       <r>  -2.9498  1.0000</r>
       <r>  -2.9316  1.0000</r>
       <r>  -2.7664  1.0000</r>
       <r>  -2.5915  1.0000</r>
       <r>  -2.5840  1.0000</r>
       <r>  -2.5822  1.0000</r>
       <r>  -2.5737  1.0000</r>
       <r>  -2.5649  1.0000</r>
       <r>  -2.5629  1.0000</r>
       <r>  -2.5515  1.0000</r>
       <r>  -2.5148  1.0000</r>
       <r>  -2.3063  1.0000</r>
       <r>  -2.2259  1.0000</r>
       <r>  -2.1557  1.0000</r>
       <r>  -2.0585  1.0000</r>
       <r>  -2.0574  1.0000</r>
       <r>  -1.7754  1.0000</r>
       <r>  -1.7731  1.0000</r>
       <r>  -1.6963  1.0000</r>
       <r>  -1.6380  1.0000</r>
       <r>  -1.6213  1.0000</r>
       <r>  -1.4291  1.0000</r>
       <r>  -1.3988  1.0000</r>
       <r>  -1.3128  1.0000</r>
       <r>  -1.1535  1.0000</r>
       <r>  -1.0511  1.0000</r>
       <r>  -0.9863  1.0000</r>
       <r>  -0.9263  1.0000</r>
       <r>  -0.7746  1.0000</r>
       <r>  -0.6950  1.0000</r>
       <r>  -0.6166  1.0000</r>
       <r>  -0.5678  1.0000</r>
       <r>  -0.4569  1.0000</r>
       <r>  -0.2363  1.0000</r>
       <r>   2.7014  0.0000</r>
       <r>   2.7273  0.0000</r>
       <r>   2.7487  0.0000</r>
       <r>   2.8193  0.0000</r>
       <r>   2.9315  0.0000</r>
       <r>   3.0050  0.0000</r>
       <r>   3.1547  0.0000</r>
       <r>   3.1911  0.0000</r>
       <r>   3.4646  0.0000</r>
       <r>   3.6356  0.0000</r>
       <r>   3.7661  0.0000</r>
       <r>   3.8445  0.0000</r>
       <r>   3.8473  0.0000</r>
       <r>   3.9813  0.0000</r>
       <r>   4.0085  0.0000</r>
       <r>   4.0558  0.0000</r>
       <r>   4.3028  0.0000</r>
       <r>   4.3528  0.0000</r>
       <r>   4.4529  0.0000</r>
       <r>   4.5978  0.0000</r>
       <r>   4.6146  0.0000</r>
       <r>   4.6570  0.0000</r>
       <r>   4.8168  0.0000</r>
       <r>   4.9322  0.0000</r>
       <r>   4.9766  0.0000</r>
       <r>   5.1611  0.0000</r>
       <r>   5.1652  0.0000</r>
       <r>   5.2989  0.0000</r>
       <r>   5.3606  0.0000</r>
       <r>   5.4565  0.0000</r>
       <r>   5.6115  0.0000</r>
       <r>   5.6559  0.0000</r>
       <r>   5.8537  0.0000</r>
       <r>   5.9185  0.0000</r>
       <r>   6.1099  0.0000</r>
       <r>   6.1368  0.0000</r>
       <r>   6.2338  0.0000</r>
       <r>   6.4315  0.0000</r>
       <r>   6.4936  0.0000</r>
       <r>   6.7232  0.0000</r>
       <r>   6.9134  0.0000</r>
       <r>   6.9845  0.0000</r>
       <r>   7.2807  0.0000</r>
       <r>   7.3952  0.0000</r>
       <r>   7.7419  0.0000</r>
       <r>   7.8645  0.0000</r>
       <r>   7.9132  0.0000</r>
       <r>   8.3024  0.0000</r>
       <r>   8.3465  0.0000</r>
       <r>   8.5817  0.0000</r>
       <r>   8.6801  0.0000</r>
       <r>   8.7782  0.0000</r>
       <r>   8.8498  0.0000</r>
       <r>   9.3906  0.0000</r>
       <r>   9.4954  0.0000</r>
       <r>   9.6596  0.0000</r>
      </set>
     </set>
    </set>
   </array>
  </eigenvalues>
 </calculation>
 <structure name="finalpos" >
  <crystal>
   <varray name="basis" >
    <v>       7.33812550       0.00000006      -0.00000001 </v>
    <v>       0.00000007       8.47288318       0.00023529 </v>
    <v>       0.00000001       0.00064867      23.39249346 </v>
   </varray>
   <i name="volume">   1454.43015460</i>
   <varray name="rec_basis" >
    <v>       0.13627458       0.00000000       0.00000000 </v>
    <v>       0.00000000       0.11802358      -0.00000327 </v>
    <v>       0.00000000      -0.00000119       0.04274876 </v>
   </varray>
  </crystal>
  <varray name="positions" >
   <v>       0.33330572       0.49999254       0.14315621 </v>
   <v>       0.33333517       0.50002787       0.28630782 </v>
   <v>       0.50000013       0.58333123       0.14313203 </v>
   <v>       0.50000010       0.74999471       0.14314182 </v>
   <v>       0.50000010       0.75002500       0.28631236 </v>
   <v>       0.33333499       0.66665247       0.28630811 </v>
   <v>       0.50000013       0.91665549       0.28631264 </v>
   <v>       0.33330575       0.83333366       0.14314640 </v>
   <v>       0.33330565      -0.00000771       0.14315621 </v>
   <v>       0.33333499       0.00002782       0.28630782 </v>
   <v>       0.49999987       0.08333122       0.14313203 </v>
   <v>       0.49999989       0.24999462       0.14314182 </v>
   <v>       0.49999995       0.25002545       0.28631235 </v>
   <v>       0.33333517       0.16665260       0.28630810 </v>
   <v>       0.49999997       0.41665498       0.28631264 </v>
   <v>       0.33330579       0.33333319       0.14314639 </v>
   <v>       0.66669426       0.49999261       0.14315621 </v>
   <v>       0.66666479       0.50002798       0.28630782 </v>
   <v>       0.83330565       0.58333358       0.14314639 </v>
   <v>       0.83330570       0.74999236       0.14315621 </v>
   <v>       0.83333492       0.75002780       0.28630782 </v>
   <v>       0.66666500       0.66665246       0.28630811 </v>
   <v>       0.83333488       0.91665255       0.28630811 </v>
   <v>       0.66669424       0.83333355       0.14314640 </v>
   <v>       0.66669442      -0.00000777       0.14315621 </v>
   <v>       0.66666488       0.00002784       0.28630782 </v>
   <v>       0.83330575       0.08333358       0.14314639 </v>
   <v>       0.83330579       0.24999207       0.14315620 </v>
   <v>       0.83333520       0.25002812       0.28630782 </v>
   <v>       0.66666490       0.16665251       0.28630811 </v>
   <v>       0.83333520       0.41665223       0.28630810 </v>
   <v>       0.66669418       0.33333333       0.14314639 </v>
   <v>       0.00000001       0.49999496       0.14314181 </v>
   <v>       0.00000005       0.50002507       0.28631235 </v>
   <v>       0.16669421       0.58333362       0.14314640 </v>
   <v>       0.16669420       0.74999231       0.14315621 </v>
   <v>       0.16666499       0.75002799       0.28630782 </v>
   <v>       0.00000000       0.66665520       0.28631264 </v>
   <v>       0.16666500       0.91665249       0.28630811 </v>
   <v>       0.00000000       0.83333116       0.14313202 </v>
   <v>      -0.00000009      -0.00000533       0.14314182 </v>
   <v>       0.00000012       0.00002506       0.28631235 </v>
   <v>       0.16669439       0.08333356       0.14314639 </v>
   <v>       0.16669433       0.24999216       0.14315620 </v>
   <v>       0.16666485       0.25002814       0.28630782 </v>
   <v>      -0.00000006       0.16665546       0.28631264 </v>
   <v>       0.16666480       0.41665230       0.28630810 </v>
   <v>       0.00000002       0.33333086       0.14313203 </v>
   <v>       0.33337144       0.49997488       0.42946733 </v>
   <v>       0.33332320       0.50000660       0.57261001 </v>
   <v>       0.50000009       0.58334550       0.42945310 </v>
   <v>       0.50000012       0.74997368       0.42945339 </v>
   <v>       0.49999991       0.75000498       0.57260756 </v>
   <v>       0.33332308       0.66666685       0.57261982 </v>
   <v>       0.49999994       0.91666868       0.57261737 </v>
   <v>       0.33337155       0.83334467       0.42946702 </v>
   <v>       0.33337153      -0.00002560       0.42946732 </v>
   <v>       0.33332308       0.00000679       0.57261000 </v>
   <v>       0.50000004       0.08334534       0.42945311 </v>
   <v>       0.50000021       0.24997359       0.42945339 </v>
   <v>       0.49999992       0.25000532       0.57260756 </v>
   <v>       0.33332296       0.16666689       0.57261982 </v>
   <v>       0.49999989       0.41666830       0.57261738 </v>
   <v>       0.33337145       0.33334418       0.42946702 </v>
   <v>       0.66662846       0.49997463       0.42946733 </v>
   <v>       0.66667704       0.50000644       0.57261001 </v>
   <v>       0.83337144       0.58334454       0.42946701 </v>
   <v>       0.83337152       0.74997452       0.42946733 </v>
   <v>       0.83332318       0.75000646       0.57261001 </v>
   <v>       0.66667709       0.66666700       0.57261981 </v>
   <v>       0.83332308       0.91666696       0.57261982 </v>
   <v>       0.66662840       0.83334472       0.42946701 </v>
   <v>       0.66662843      -0.00002573       0.42946732 </v>
   <v>       0.66667685       0.00000673       0.57261001 </v>
   <v>       0.83337144       0.08334433       0.42946702 </v>
   <v>       0.83337151       0.24997454       0.42946733 </v>
   <v>       0.83332309       0.25000701       0.57261001 </v>
   <v>       0.66667693       0.16666692       0.57261982 </v>
   <v>       0.83332305       0.41666666       0.57261981 </v>
   <v>       0.66662832       0.33334436       0.42946701 </v>
   <v>       0.00000008       0.49997385       0.42945339 </v>
   <v>      -0.00000022       0.50000503       0.57260756 </v>
   <v>       0.16662850       0.58334466       0.42946702 </v>
   <v>       0.16662837       0.74997441       0.42946733 </v>
   <v>       0.16667692       0.75000645       0.57261000 </v>
   <v>      -0.00000016       0.66666859       0.57261738 </v>
   <v>       0.16667698       0.91666712       0.57261983 </v>
   <v>       0.00000005       0.83334553       0.42945310 </v>
   <v>       0.00000003      -0.00002657       0.42945339 </v>
   <v>       0.00000008       0.00000522       0.57260755 </v>
   <v>       0.16662853       0.08334459       0.42946702 </v>
   <v>       0.16662828       0.24997438       0.42946733 </v>
   <v>       0.16667700       0.25000672       0.57261000 </v>
   <v>       0.00000011       0.16666851       0.57261738 </v>
   <v>       0.16667704       0.41666663       0.57261982 </v>
   <v>       0.00000023       0.33334510       0.42945311 </v>
  </varray>
 </structure>
</modeling>
