<?xml version="1.0" encoding="ISO-8859-1"?>
<modeling>
 <generator>
  <i name="program" type="string">vasp</i>
  <i name="version" type="string">4.6.36 </i>
  <i name="subversion" type="string">17Feb09 complex  parallel</i>
  <i name="platform" type="string">LinuxPgi</i>
  <i name="date" type="string">2013 06 20</i>
  <i name="time" type="string">12:37:02</i>
 </generator>
 <incar>
  <i type="string" name="SYSTEM"> H2O</i>
  <i type="int" name="ISTART">     0</i>
  <i type="string" name="PREC">high</i>
  <i type="int" name="IALGO">    48</i>
  <i type="int" name="MAXMIX">    50</i>
  <i name="BMIX">      2.00000000</i>
  <i type="int" name="ICHARG">     2</i>
  <i type="int" name="NELMIN">     4</i>
  <i type="int" name="IBRION">     2</i>
  <i type="int" name="NSW">    50</i>
  <i type="int" name="ISIF">     3</i>
  <i type="int" name="ISYM">     0</i>
  <i type="int" name="KBLOCK">   100</i>
  <i name="POTIM">      0.19350400</i>
  <i name="TEBEG">    330.00000000</i>
  <i name="SMASS">      0.50000000</i>
  <i type="string" name="LREAL"> A</i>
  <i type="int" name="ISMEAR">    -1</i>
  <i name="SIGMA">      0.02843723</i>
  <i type="int" name="NWRITE">     3</i>
 </incar>
 <kpoints>
  <generation param="Monkhorst-Pack">
   <v type="int" name="divisions">       3       2       1</v>
   <v name="usershift">      0.00000000       0.00000000       0.00000000 </v>
   <v name="genvec1">      0.33333333       0.00000000       0.00000000 </v>
   <v name="genvec2">      0.00000000       0.50000000       0.00000000 </v>
   <v name="genvec3">      0.00000000       0.00000000       1.00000000 </v>
   <v name="shift">      0.00000000       0.50000000       0.00000000 </v>
  </generation>
  <varray name="kpointlist" >
   <v>       0.00000000       0.25000000       0.00000000 </v>
   <v>       0.33333333       0.25000000       0.00000000 </v>
   <v>      -0.33333333       0.25000000       0.00000000 </v>
  </varray>
  <varray name="weights" >
   <v>       0.33333333 </v>
   <v>       0.33333333 </v>
   <v>       0.33333333 </v>
  </varray>
 </kpoints>
 <parameters>
  <separator name="general" >
   <i type="string" name="SYSTEM">H2O</i>
   <i type="logical" name="LCOMPAT"> F  </i>
  </separator>
  <separator name="electronic" >
   <i type="string" name="PREC">high</i>
   <i name="ENMAX">    875.00000000</i>
   <i name="ENAUG">    946.76800000</i>
   <i name="EDIFF">      0.00010000</i>
   <i type="int" name="IALGO">    48</i>
   <i type="int" name="IWAVPR">    11</i>
   <i type="int" name="NBANDS">    21</i>
   <i name="NELECT">     32.00000000</i>
   <separator name="electronic smearing" >
    <i type="int" name="ISMEAR">    -1</i>
    <i name="SIGMA">      0.02843723</i>
   </separator>
   <separator name="electronic projectors" >
    <i type="logical" name="LREAL"> T  </i>
    <v name="ROPT">     -0.00040000</v>
    <i type="int" name="LMAXPAW">  -100</i>
    <i type="int" name="LMAXMIX">     2</i>
   </separator>
   <separator name="electronic startup" >
    <i type="int" name="ISTART">     0</i>
    <i type="int" name="ICHARG">     2</i>
    <i type="int" name="INIWAV">     1</i>
   </separator>
   <separator name="electronic spin" >
    <i type="int" name="ISPIN">     1</i>
    <i type="logical" name="LNONCOLLINEAR"> F  </i>
    <v name="MAGMOM">      1.00000000      1.00000000      1.00000000      1.00000000      1.00000000      1.00000000      1.00000000      1.00000000</v>
    <i name="NUPDOWN">     -1.00000000</i>
    <i type="logical" name="LSORBIT"> F  </i>
    <v name="SAXIS">      0.00000000      0.00000000      1.00000000</v>
    <i type="logical" name="LSPIRAL"> F  </i>
    <v name="QSPIRAL">      0.00000000      0.00000000      0.00000000</v>
    <i type="logical" name="LZEROZ"> F  </i>
   </separator>
   <separator name="electronic exchange-correlation" >
    <i type="string" name="GGA">--</i>
    <i type="int" name="VOSKOWN">     0</i>
    <i type="logical" name="LASPH"> F  </i>
    <i type="logical" name="LMETAGGA"> F  </i>
    <i type="string" name="GGA2">--</i>
   </separator>
   <separator name="electronic convergence" >
    <i type="int" name="NELM">    60</i>
    <i type="int" name="NELMDL">   -12</i>
    <i type="int" name="NELMIN">     4</i>
    <i name="ENINI">    875.00000000</i>
    <separator name="electronic convergence detail" >
     <i type="logical" name="LDIAG"> T  </i>
     <i name="WEIMIN">      0.00100000</i>
     <i name="EBREAK">      0.00000119</i>
     <i name="DEPER">      0.30000000</i>
     <i type="int" name="NRMM">     4</i>
     <i name="TIME">      0.10000000</i>
    </separator>
   </separator>
   <separator name="electronic mixer" >
    <i name="AMIX">      0.40000000</i>
    <i name="BMIX">      2.00000000</i>
    <i name="AMIN">      0.10000000</i>
    <i name="AMIX_MAG">      1.60000000</i>
    <i name="BMIX_MAG">      2.00000000</i>
    <separator name="electronic mixer details" >
     <i type="int" name="IMIX">     4</i>
     <i type="int" name="MAXMIX">    50</i>
     <i name="WC">    100.00000000</i>
     <i type="int" name="INIMIX">     1</i>
     <i type="int" name="MIXPRE">     1</i>
     <i type="int" name="MREMOVE">     5</i>
    </separator>
   </separator>
   <separator name="electronic dipolcorrection" >
    <i type="int" name="IDIPOL">     0</i>
    <i type="logical" name="LDIPOL"> F  </i>
    <v name="DIPOL">   -100.00000000</v>
    <i name="EFIELD">      0.00000000</i>
   </separator>
  </separator>
  <separator name="grids" >
   <i type="int" name="NGX">    24</i>
   <i type="int" name="NGY">    42</i>
   <i type="int" name="NGZ">    70</i>
   <i type="int" name="NGXF">    32</i>
   <i type="int" name="NGYF">    60</i>
   <i type="int" name="NGZF">    90</i>
   <i type="logical" name="ADDGRID"> F  </i>
  </separator>
  <separator name="ionic" >
   <i type="int" name="NSW">    50</i>
   <i type="int" name="IBRION">     2</i>
   <i type="int" name="ISIF">     3</i>
   <i name="PSTRESS">      0.00000000</i>
   <i name="EDIFFG">      0.00100000</i>
   <i type="int" name="NFREE">     1</i>
   <i name="POTIM">      0.19350400</i>
   <i name="SMASS">      0.50000000</i>
  </separator>
  <separator name="ionic md" >
   <i name="TEBEG">    330.00000000</i>
   <i name="TEEND">    330.00000000</i>
   <i type="int" name="NBLOCK">     1</i>
   <i type="int" name="KBLOCK">     1</i>
   <i type="int" name="NPACO">   256</i>
   <i name="APACO">     16.00000000</i>
  </separator>
  <separator name="symmetry" >
   <i type="int" name="ISYM">     0</i>
   <i name="SYMPREC">      0.00001000</i>
  </separator>
  <separator name="dos" >
   <i type="logical" name="LORBIT"> T  </i>
   <v name="RWIGS">     -1.00000000</v>
   <i type="int" name="NEDOS">   301</i>
   <i name="EMIN">     10.00000000</i>
   <i name="EMAX">    -10.00000000</i>
  </separator>
  <separator name="writing" >
   <i type="int" name="NWRITE">     3</i>
   <i type="logical" name="LWAVE"> T  </i>
   <i type="logical" name="LCHARG"> T  </i>
   <i type="logical" name="LPARD"> F  </i>
   <i type="logical" name="LVTOT"> F  </i>
   <i type="logical" name="LELF"> F  </i>
   <i type="logical" name="LOPTICS"> F  </i>
   <v name="STM">      0.00000000      0.00000000      0.00000000      0.00000000      0.00000000</v>
  </separator>
  <separator name="performance" >
   <i type="int" name="NPAR">     4</i>
   <i type="int" name="NSIM">     4</i>
   <i type="int" name="NBLK">   256</i>
   <i type="logical" name="LPLANE"> T  </i>
   <i type="logical" name="LCRITICAL_MEM"> F  </i>
   <i type="logical" name="LSCALAPACK"> F  </i>
   <i type="logical" name="LSCALU"> F  </i>
   <i type="logical" name="LASYNC"> F  </i>
  </separator>
  <separator name="miscellaneous" >
   <i type="int" name="IDIOT">     3</i>
   <i type="logical" name="LMUSIC"> F  </i>
   <v name="POMASS">     12.01100000</v>
   <i type="logical" name="LCORR"> T  </i>
  </separator>
  <i type="logical" name="LREAL_COMPAT"> F  </i>
  <i type="logical" name="GGA_COMPAT"> T  </i>
  <i type="logical" name="LBERRY"> F  </i>
  <i type="int" name="ICORELEVEL">     0</i>
  <i type="logical" name="LDAU"> F  </i>
  <i type="int" name="I_CONSTRAINED_M">     0</i>
 </parameters>
 <atominfo>
  <atoms>       8</atoms>
  <types>       1</types>
  <array name="atoms" >
   <dimension dim="1">ion</dimension>
   <field type="string">element</field>
   <field type="int">atomtype</field>
   <set>
    <rc><c>C </c><c>   1</c></rc>
    <rc><c>C </c><c>   1</c></rc>
    <rc><c>C </c><c>   1</c></rc>
    <rc><c>C </c><c>   1</c></rc>
    <rc><c>C </c><c>   1</c></rc>
    <rc><c>C </c><c>   1</c></rc>
    <rc><c>C </c><c>   1</c></rc>
    <rc><c>C </c><c>   1</c></rc>
   </set>
  </array>
  <array name="atomtypes" >
   <dimension dim="1">type</dimension>
   <field type="int">atomspertype</field>
   <field type="string">element</field>
   <field>mass</field>
   <field>valence</field>
   <field type="string">pseudopotential</field>
   <set>
    <rc><c>   8</c><c>C </c><c>     12.01100000</c><c>      4.00000000</c><c> PAW_PBE C_h 20Dec2001                  </c></rc>
   </set>
  </array>
 </atominfo>
 <structure name="initialpos" >
  <crystal>
   <varray name="basis" >
    <v>       2.45876000       0.00000000       0.00000000 </v>
    <v>       0.00000000       4.26000000       0.00000000 </v>
    <v>       0.00000000       0.00000000       6.70000000 </v>
   </varray>
   <i name="volume">     70.17792792</i>
   <varray name="rec_basis" >
    <v>       0.40670907       0.00000000       0.00000000 </v>
    <v>       0.00000000       0.23474178       0.00000000 </v>
    <v>       0.00000000       0.00000000       0.14925373 </v>
   </varray>
  </crystal>
  <varray name="positions" >
   <v>       0.00030503       0.00000000       0.50000000 </v>
   <v>       0.00030503       0.00000000       0.00000000 </v>
   <v>       0.50045958       0.16666667       0.50000000 </v>
   <v>       0.50045958       0.50000000       0.50000000 </v>
   <v>       0.50045958       0.50000000       0.00000000 </v>
   <v>       0.00030503       0.33333333       0.00000000 </v>
   <v>       0.50045958       0.83333333       0.00000000 </v>
   <v>       0.00030503       0.66666667       0.50000000 </v>
  </varray>
 </structure>
 <calculation>
  <scstep>
   <time name="diag">    0.21    0.26</time>
   <time name="diis">    0.19    0.24</time>
   <time name="orth">    0.01    0.01</time>
   <time name="total">    0.44    0.55</time>
   <energy>
    <i name="alphaZ">     46.34014050</i>
    <i name="ewald">   -922.39335463</i>
    <i name="hartreedc">   -296.29163434</i>
    <i name="XCdc">    110.91455245</i>
    <i name="pawpsdc">    123.95599002</i>
    <i name="pawaedc">   -133.73361032</i>
    <i name="eentropy">     -0.00000076</i>
    <i name="bandstr">    316.25921710</i>
    <i name="atom">   1177.21277265</i>
    <i name="e_fr_energy">    422.26407269</i>
    <i name="e_wo_entrp">    422.26407345</i>
    <i name="e_0_energy">    422.26407307</i>
   </energy>
  </scstep>
  <scstep>
   <time name="diag">    0.08    0.08</time>
   <time name="diis">    0.16    0.16</time>
   <time name="orth">    0.01    0.01</time>
   <time name="total">    0.24    0.32</time>
   <energy>
    <i name="e_fr_energy">    101.48754138</i>
    <i name="e_wo_entrp">    101.48794838</i>
    <i name="e_0_energy">    101.48774488</i>
   </energy>
  </scstep>
  <scstep>
   <time name="diag">    0.07    0.07</time>
   <time name="diis">    0.14    0.14</time>
   <time name="orth">    0.01    0.01</time>
   <time name="total">    0.21    0.28</time>
   <energy>
    <i name="e_fr_energy">     -9.31952278</i>
    <i name="e_wo_entrp">     -9.31933409</i>
    <i name="e_0_energy">     -9.31942844</i>
   </energy>
  </scstep>
  <scstep>
   <time name="diag">    0.07    0.07</time>
   <time name="diis">    0.14    0.14</time>
   <time name="orth">    0.01    0.01</time>
   <time name="total">    0.22    0.41</time>
   <energy>
    <i name="e_fr_energy">    -52.92412385</i>
    <i name="e_wo_entrp">    -52.92412228</i>
    <i name="e_0_energy">    -52.92412306</i>
   </energy>
  </scstep>
  <scstep>
   <time name="diag">    0.07    0.07</time>
   <time name="diis">    0.15    0.15</time>
   <time name="orth">    0.01    0.01</time>
   <time name="total">    0.22    0.30</time>
   <energy>
    <i name="e_fr_energy">    -69.47261087</i>
    <i name="e_wo_entrp">    -69.47261087</i>
    <i name="e_0_energy">    -69.47261087</i>
   </energy>
  </scstep>
  <scstep>
   <time name="diag">    0.07    0.07</time>
   <time name="diis">    0.15    0.15</time>
   <time name="orth">    0.01    0.01</time>
   <time name="total">    0.23    0.36</time>
   <energy>
    <i name="e_fr_energy">    -75.35257474</i>
    <i name="e_wo_entrp">    -75.35257474</i>
    <i name="e_0_energy">    -75.35257474</i>
   </energy>
  </scstep>
  <scstep>
   <time name="diag">    0.07    0.07</time>
   <time name="diis">    0.14    0.14</time>
   <time name="orth">    0.01    0.01</time>
   <time name="total">    0.23    0.25</time>
   <energy>
    <i name="e_fr_energy">    -77.19523600</i>
    <i name="e_wo_entrp">    -77.19523600</i>
    <i name="e_0_energy">    -77.19523600</i>
   </energy>
  </scstep>
  <scstep>
   <time name="diag">    0.09    0.09</time>
   <time name="diis">    0.14    0.14</time>
   <time name="orth">    0.01    0.01</time>
   <time name="total">    0.24    0.32</time>
   <energy>
    <i name="e_fr_energy">    -77.86953411</i>
    <i name="e_wo_entrp">    -77.86953411</i>
    <i name="e_0_energy">    -77.86953411</i>
   </energy>
  </scstep>
  <scstep>
   <time name="diag">    0.08    0.08</time>
   <time name="diis">    0.29    0.29</time>
   <time name="orth">    0.01    0.01</time>
   <time name="total">    0.38    0.40</time>
   <energy>
    <i name="e_fr_energy">    -78.27044127</i>
    <i name="e_wo_entrp">    -78.27044127</i>
    <i name="e_0_energy">    -78.27044127</i>
   </energy>
  </scstep>
  <scstep>
   <time name="diag">    0.07    0.07</time>
   <time name="diis">    0.32    0.32</time>
   <time name="orth">    0.01    0.01</time>
   <time name="total">    0.40    0.52</time>
   <energy>
    <i name="e_fr_energy">    -78.30090107</i>
    <i name="e_wo_entrp">    -78.30090107</i>
    <i name="e_0_energy">    -78.30090107</i>
   </energy>
  </scstep>
  <scstep>
   <time name="diag">    0.07    0.07</time>
   <time name="diis">    0.26    0.26</time>
   <time name="orth">    0.01    0.01</time>
   <time name="total">    0.34    0.38</time>
   <energy>
    <i name="e_fr_energy">    -78.30118505</i>
    <i name="e_wo_entrp">    -78.30118505</i>
    <i name="e_0_energy">    -78.30118505</i>
   </energy>
  </scstep>
  <scstep>
   <time name="diag">    0.07    0.07</time>
   <time name="diis">    0.20    0.20</time>
   <time name="orth">    0.01    0.01</time>
   <time name="total">    0.32    0.32</time>
   <energy>
    <i name="e_fr_energy">    -78.30120659</i>
    <i name="e_wo_entrp">    -78.30120659</i>
    <i name="e_0_energy">    -78.30120659</i>
   </energy>
  </scstep>
  <scstep>
   <time name="diag">    0.07    0.07</time>
   <time name="diis">    0.29    0.29</time>
   <time name="orth">    0.01    0.01</time>
   <time name="total">    0.43    0.45</time>
   <energy>
    <i name="e_fr_energy">    -75.28135462</i>
    <i name="e_wo_entrp">    -75.28135462</i>
    <i name="e_0_energy">    -75.28135462</i>
   </energy>
  </scstep>
  <scstep>
   <time name="diag">    0.07    0.07</time>
   <time name="diis">    0.27    0.27</time>
   <time name="orth">    0.01    0.01</time>
   <time name="total">    0.41    0.45</time>
   <energy>
    <i name="e_fr_energy">    -73.22237269</i>
    <i name="e_wo_entrp">    -73.22237269</i>
    <i name="e_0_energy">    -73.22237269</i>
   </energy>
  </scstep>
  <scstep>
   <time name="diag">    0.07    0.07</time>
   <time name="diis">    0.26    0.26</time>
   <time name="orth">    0.01    0.01</time>
   <time name="total">    0.40    0.46</time>
   <energy>
    <i name="e_fr_energy">    -73.25806700</i>
    <i name="e_wo_entrp">    -73.25806700</i>
    <i name="e_0_energy">    -73.25806700</i>
   </energy>
  </scstep>
  <scstep>
   <time name="diag">    0.07    0.07</time>
   <time name="diis">    0.24    0.24</time>
   <time name="orth">    0.01    0.01</time>
   <time name="total">    0.38    0.47</time>
   <energy>
    <i name="e_fr_energy">    -73.26758660</i>
    <i name="e_wo_entrp">    -73.26758660</i>
    <i name="e_0_energy">    -73.26758660</i>
   </energy>
  </scstep>
  <scstep>
   <time name="diag">    0.07    0.07</time>
   <time name="diis">    0.24    0.24</time>
   <time name="orth">    0.01    0.01</time>
   <time name="total">    0.38    0.43</time>
   <energy>
    <i name="e_fr_energy">    -73.26941842</i>
    <i name="e_wo_entrp">    -73.26941842</i>
    <i name="e_0_energy">    -73.26941842</i>
   </energy>
  </scstep>
  <scstep>
   <time name="diag">    0.07    0.07</time>
   <time name="diis">    0.18    0.18</time>
   <time name="orth">    0.01    0.01</time>
   <time name="total">    0.29    0.30</time>
   <energy>
    <i name="alphaZ">     46.34014050</i>
    <i name="ewald">   -922.39335463</i>
    <i name="hartreedc">   -368.35910383</i>
    <i name="XCdc">    115.58932297</i>
    <i name="pawpsdc">    207.27869292</i>
    <i name="pawaedc">   -218.23468647</i>
    <i name="eentropy">      0.00000000</i>
    <i name="bandstr">   -110.70320132</i>
    <i name="atom">   1177.21277265</i>
    <i name="e_fr_energy">    -73.26941720</i>
    <i name="e_wo_entrp">    -73.26941720</i>
    <i name="e_0_energy">    -73.26941720</i>
   </energy>
  </scstep>
  <structure>
   <crystal>
    <varray name="basis" >
     <v>       2.45876000       0.00000000       0.00000000 </v>
     <v>       0.00000000       4.26000000       0.00000000 </v>
     <v>       0.00000000       0.00000000       6.70000000 </v>
    </varray>
    <i name="volume">     70.17792792</i>
    <varray name="rec_basis" >
     <v>       0.40670907       0.00000000       0.00000000 </v>
     <v>       0.00000000       0.23474178       0.00000000 </v>
     <v>       0.00000000       0.00000000       0.14925373 </v>
    </varray>
   </crystal>
   <varray name="positions" >
    <v>       0.00030503       0.00000000       0.50000000 </v>
    <v>       0.00030503       0.00000000       0.00000000 </v>
    <v>       0.50045958       0.16666667       0.50000000 </v>
    <v>       0.50045958       0.50000000       0.50000000 </v>
    <v>       0.50045958       0.50000000       0.00000000 </v>
    <v>       0.00030503       0.33333333       0.00000000 </v>
    <v>       0.50045958       0.83333333       0.00000000 </v>
    <v>       0.00030503       0.66666667       0.50000000 </v>
   </varray>
  </structure>
  <varray name="forces" >
   <v>       0.01498799       0.01619500       0.00009829 </v>
   <v>       0.01494180      -0.01676253      -0.00002108 </v>
   <v>      -0.01501225      -0.05749288      -0.00005183 </v>
   <v>      -0.01478431       0.01637225      -0.00014135 </v>
   <v>      -0.01502050      -0.01622760      -0.00001341 </v>
   <v>       0.01494218       0.05785368       0.00012931 </v>
   <v>      -0.01503667       0.05778581      -0.00015298 </v>
   <v>       0.01498176      -0.05772372       0.00015303 </v>
  </varray>
  <varray name="stress" >
   <v>       3.92517955       0.00849949       0.00596204 </v>
   <v>       0.00849605      25.47129995       0.01643647 </v>
   <v>       0.00596453       0.01644386      83.63683294 </v>
  </varray>
  <energy>
   <i name="e_fr_energy">    -73.26941720</i>
   <i name="e_wo_entrp">    -73.26941720</i>
   <i name="e_0_energy">      0.00000000</i>
  </energy>
 </calculation>
 <calculation>
  <scstep>
   <time name="diag">    0.07    0.07</time>
   <time name="diis">    0.29    0.29</time>
   <time name="orth">    0.01    0.01</time>
   <time name="total">    0.44    0.44</time>
   <energy>
    <i name="alphaZ">     45.80960047</i>
    <i name="ewald">   -912.32630693</i>
    <i name="hartreedc">   -369.71939801</i>
    <i name="XCdc">    115.17257194</i>
    <i name="pawpsdc">    206.88338841</i>
    <i name="pawaedc">   -217.81934433</i>
    <i name="eentropy">      0.00000000</i>
    <i name="bandstr">   -118.53246485</i>
    <i name="atom">   1177.21277265</i>
    <i name="e_fr_energy">    -73.31918064</i>
    <i name="e_wo_entrp">    -73.31918064</i>
    <i name="e_0_energy">    -73.31918064</i>
   </energy>
  </scstep>
  <scstep>
   <time name="diag">    0.07    0.07</time>
   <time name="diis">    0.26    0.26</time>
   <time name="orth">    0.01    0.01</time>
   <time name="total">    0.40    0.42</time>
   <energy>
    <i name="e_fr_energy">    -73.30181533</i>
    <i name="e_wo_entrp">    -73.30181533</i>
    <i name="e_0_energy">    -73.30181533</i>
   </energy>
  </scstep>
  <scstep>
   <time name="diag">    0.07    0.07</time>
   <time name="diis">    0.26    0.26</time>
   <time name="orth">    0.01    0.01</time>
   <time name="total">    0.40    0.43</time>
   <energy>
    <i name="e_fr_energy">    -73.30013843</i>
    <i name="e_wo_entrp">    -73.30013843</i>
    <i name="e_0_energy">    -73.30013843</i>
   </energy>
  </scstep>
  <scstep>
   <time name="diag">    0.07    0.07</time>
   <time name="diis">    0.24    0.24</time>
   <time name="orth">    0.01    0.01</time>
   <time name="total">    0.38    0.41</time>
   <energy>
    <i name="e_fr_energy">    -73.29950162</i>
    <i name="e_wo_entrp">    -73.29950162</i>
    <i name="e_0_energy">    -73.29950162</i>
   </energy>
  </scstep>
  <scstep>
   <time name="diag">    0.07    0.07</time>
   <time name="diis">    0.17    0.17</time>
   <time name="orth">    0.01    0.01</time>
   <time name="total">    0.28    0.29</time>
   <energy>
    <i name="alphaZ">     45.80960047</i>
    <i name="ewald">   -912.32630693</i>
    <i name="hartreedc">   -374.71635611</i>
    <i name="XCdc">    115.46133184</i>
    <i name="pawpsdc">    206.30836404</i>
    <i name="pawaedc">   -217.24021015</i>
    <i name="eentropy">      0.00000000</i>
    <i name="bandstr">   -113.80864458</i>
    <i name="atom">   1177.21277265</i>
    <i name="e_fr_energy">    -73.29944876</i>
    <i name="e_wo_entrp">    -73.29944876</i>
    <i name="e_0_energy">    -73.29944876</i>
   </energy>
  </scstep>
  <structure>
   <crystal>
    <varray name="basis" >
     <v>       2.45974657       0.00000214       0.00000150 </v>
     <v>       0.00000370       4.27109205       0.00000716 </v>
     <v>       0.00000409       0.00001126       6.75728270 </v>
    </varray>
    <i name="volume">     70.99068769</i>
    <varray name="rec_basis" >
     <v>       0.40654595      -0.00000035      -0.00000025 </v>
     <v>      -0.00000020       0.23413216      -0.00000039 </v>
     <v>      -0.00000009      -0.00000025       0.14798848 </v>
    </varray>
   </crystal>
   <varray name="positions" >
    <v>       0.00041884       0.00007098       0.50000027 </v>
    <v>       0.00041849      -0.00007347      -0.00000006 </v>
    <v>       0.50034559       0.16641469       0.49999986 </v>
    <v>       0.50034732       0.50007175       0.49999961 </v>
    <v>       0.50034552       0.49992888      -0.00000004 </v>
    <v>       0.00041849       0.33358689       0.00000036 </v>
    <v>       0.50034540       0.83358659      -0.00000043 </v>
    <v>       0.00041879       0.66641368       0.50000043 </v>
   </varray>
  </structure>
  <varray name="forces" >
   <v>      -0.00633091      -0.05831692       0.00006657 </v>
   <v>      -0.00636949       0.05940394      -0.00011983 </v>
   <v>       0.00641052       0.03061956       0.00005864 </v>
   <v>       0.00823050      -0.05905921       0.00010343 </v>
   <v>       0.00828755       0.05841063       0.00001371 </v>
   <v>      -0.00839994      -0.03106405      -0.00003790 </v>
   <v>       0.00652224      -0.03080164      -0.00013301 </v>
   <v>      -0.00835048       0.03080769       0.00004839 </v>
  </varray>
  <varray name="stress" >
   <v>      -5.77883133      -0.00758806       0.00007838 </v>
   <v>      -0.00758893      -4.45862226       0.00291493 </v>
   <v>       0.00007726       0.00291064      71.53368941 </v>
  </varray>
  <energy>
   <i name="e_fr_energy">    -73.29944876</i>
   <i name="e_wo_entrp">    -73.29944876</i>
   <i name="e_0_energy">      0.00000000</i>
  </energy>
 </calculation>
 <calculation>
  <scstep>
   <time name="diag">    0.07    0.07</time>
   <time name="diis">    0.26    0.26</time>
   <time name="orth">    0.01    0.01</time>
   <time name="total">    0.40    0.40</time>
   <energy>
    <i name="alphaZ">     44.27484987</i>
    <i name="ewald">   -882.40968321</i>
    <i name="hartreedc">   -378.91010345</i>
    <i name="XCdc">    114.24118450</i>
    <i name="pawpsdc">    206.24793811</i>
    <i name="pawaedc">   -217.17673616</i>
    <i name="eentropy">      0.00000000</i>
    <i name="bandstr">   -137.00418648</i>
    <i name="atom">   1177.21277265</i>
    <i name="e_fr_energy">    -73.52396415</i>
    <i name="e_wo_entrp">    -73.52396415</i>
    <i name="e_0_energy">    -73.52396415</i>
   </energy>
  </scstep>
  <scstep>
   <time name="diag">    0.07    0.07</time>
   <time name="diis">    0.25    0.25</time>
   <time name="orth">    0.01    0.01</time>
   <time name="total">    0.40    0.41</time>
   <energy>
    <i name="e_fr_energy">    -73.35367692</i>
    <i name="e_wo_entrp">    -73.35367692</i>
    <i name="e_0_energy">    -73.35367692</i>
   </energy>
  </scstep>
  <scstep>
   <time name="diag">    0.07    0.07</time>
   <time name="diis">    0.26    0.26</time>
   <time name="orth">    0.01    0.01</time>
   <time name="total">    0.41    0.45</time>
   <energy>
    <i name="e_fr_energy">    -73.35409223</i>
    <i name="e_wo_entrp">    -73.35409223</i>
    <i name="e_0_energy">    -73.35409223</i>
   </energy>
  </scstep>
  <scstep>
   <time name="diag">    0.07    0.07</time>
   <time name="diis">    0.18    0.18</time>
   <time name="orth">    0.01    0.01</time>
   <time name="total">    0.29    0.35</time>
   <energy>
    <i name="alphaZ">     44.27484987</i>
    <i name="ewald">   -882.40968321</i>
    <i name="hartreedc">   -393.75370863</i>
    <i name="XCdc">    115.08233167</i>
    <i name="pawpsdc">    203.86214810</i>
    <i name="pawaedc">   -214.74730335</i>
    <i name="eentropy">      0.00000000</i>
    <i name="bandstr">   -122.87544946</i>
    <i name="atom">   1177.21277265</i>
    <i name="e_fr_energy">    -73.35404234</i>
    <i name="e_wo_entrp">    -73.35404234</i>
    <i name="e_0_energy">    -73.35404234</i>
   </energy>
  </scstep>
  <structure>
   <crystal>
    <varray name="basis" >
     <v>       2.46270627       0.00000855       0.00000599 </v>
     <v>       0.00001480       4.30436820       0.00002863 </v>
     <v>       0.00001634       0.00004505       6.92913080 </v>
    </varray>
    <i name="volume">     73.45152043</i>
    <varray name="rec_basis" >
     <v>       0.40605736      -0.00000140      -0.00000096 </v>
     <v>      -0.00000081       0.23232213      -0.00000151 </v>
     <v>      -0.00000035      -0.00000096       0.14431825 </v>
    </varray>
   </crystal>
   <varray name="positions" >
    <v>       0.00076013       0.00028336       0.50000109 </v>
    <v>       0.00075873      -0.00029329      -0.00000023 </v>
    <v>       0.50000374       0.16566073       0.49999943 </v>
    <v>       0.50001066       0.50028646       0.49999843 </v>
    <v>       0.50000349       0.49971607      -0.00000015 </v>
    <v>       0.00075874       0.33434558       0.00000143 </v>
    <v>       0.50000300       0.83434439      -0.00000170 </v>
    <v>       0.00075994       0.66565670       0.50000170 </v>
   </varray>
  </structure>
  <varray name="forces" >
   <v>      -0.07418438      -0.23954787      -0.00006805 </v>
   <v>      -0.07417994       0.24189278      -0.00000082 </v>
   <v>       0.07508259       0.22273099       0.00003643 </v>
   <v>       0.07390119      -0.23729726       0.00013215 </v>
   <v>       0.07425930       0.23725774       0.00006131 </v>
   <v>      -0.07521085      -0.22649003      -0.00010781 </v>
   <v>       0.07509571      -0.22459611       0.00016114 </v>
   <v>      -0.07476361       0.22604977      -0.00021435 </v>
  </varray>
  <varray name="stress" >
   <v>     -32.11854204      -0.02373144      -0.00379249 </v>
   <v>      -0.02373605     -81.48836570       0.00439586 </v>
   <v>      -0.00379621       0.00439649      54.98105235 </v>
  </varray>
  <energy>
   <i name="e_fr_energy">    -73.35404234</i>
   <i name="e_wo_entrp">    -73.35404234</i>
   <i name="e_0_energy">      0.00000000</i>
  </energy>
 </calculation>
 <calculation>
  <scstep>
   <time name="diag">    0.08    0.08</time>
   <time name="diis">    0.26    0.26</time>
   <time name="orth">    0.01    0.01</time>
   <time name="total">    0.42    0.42</time>
   <energy>
    <i name="alphaZ">     41.44064257</i>
    <i name="ewald">   -823.82544375</i>
    <i name="hartreedc">   -402.40684517</i>
    <i name="XCdc">    112.73739154</i>
    <i name="pawpsdc">    203.83304700</i>
    <i name="pawaedc">   -214.71587911</i>
    <i name="eentropy">      0.00000000</i>
    <i name="bandstr">   -168.23064770</i>
    <i name="atom">   1177.21277265</i>
    <i name="e_fr_energy">    -73.95496196</i>
    <i name="e_wo_entrp">    -73.95496196</i>
    <i name="e_0_energy">    -73.95496196</i>
   </energy>
  </scstep>
  <scstep>
   <time name="diag">    0.08    0.08</time>
   <time name="diis">    0.27    0.27</time>
   <time name="orth">    0.01    0.01</time>
   <time name="total">    0.43    0.44</time>
   <energy>
    <i name="e_fr_energy">    -73.31785651</i>
    <i name="e_wo_entrp">    -73.31785651</i>
    <i name="e_0_energy">    -73.31785651</i>
   </energy>
  </scstep>
  <scstep>
   <time name="diag">    0.07    0.07</time>
   <time name="diis">    0.29    0.29</time>
   <time name="orth">    0.01    0.01</time>
   <time name="total">    0.44    0.44</time>
   <energy>
    <i name="e_fr_energy">    -73.31945839</i>
    <i name="e_wo_entrp">    -73.31945839</i>
    <i name="e_0_energy">    -73.31945839</i>
   </energy>
  </scstep>
  <scstep>
   <time name="diag">    0.07    0.07</time>
   <time name="diis">    0.23    0.23</time>
   <time name="orth">    0.01    0.01</time>
   <time name="total">    0.38    0.39</time>
   <energy>
    <i name="e_fr_energy">    -73.31962614</i>
    <i name="e_wo_entrp">    -73.31962614</i>
    <i name="e_0_energy">    -73.31962614</i>
   </energy>
  </scstep>
  <scstep>
   <time name="diag">    0.07    0.07</time>
   <time name="diis">    0.18    0.18</time>
   <time name="orth">    0.01    0.01</time>
   <time name="total">    0.30    0.31</time>
   <energy>
    <i name="alphaZ">     41.44064257</i>
    <i name="ewald">   -823.82544375</i>
    <i name="hartreedc">   -431.92822140</i>
    <i name="XCdc">    114.36072016</i>
    <i name="pawpsdc">    199.35111594</i>
    <i name="pawaedc">   -210.14211297</i>
    <i name="eentropy">      0.00000000</i>
    <i name="bandstr">   -139.78911139</i>
    <i name="atom">   1177.21277265</i>
    <i name="e_fr_energy">    -73.31963818</i>
    <i name="e_wo_entrp">    -73.31963818</i>
    <i name="e_0_energy">    -73.31963818</i>
   </energy>
  </scstep>
  <structure>
   <crystal>
    <varray name="basis" >
     <v>       2.46862567       0.00002136       0.00001499 </v>
     <v>       0.00003700       4.37092050       0.00007158 </v>
     <v>       0.00004085       0.00011262       7.27282701 </v>
    </varray>
    <i name="volume">     78.47501483</i>
    <varray name="rec_basis" >
     <v>       0.40508369      -0.00000343      -0.00000228 </v>
     <v>      -0.00000198       0.22878476      -0.00000354 </v>
     <v>      -0.00000083      -0.00000225       0.13749811 </v>
    </varray>
   </crystal>
   <varray name="positions" >
    <v>       0.00144189       0.00070483       0.50000267 </v>
    <v>       0.00143839      -0.00072954      -0.00000057 </v>
    <v>       0.49932089       0.16416448       0.49999860 </v>
    <v>       0.49933816       0.50071255       0.49999615 </v>
    <v>       0.49932025       0.49929375      -0.00000036 </v>
    <v>       0.00143841       0.33585123       0.00000352 </v>
    <v>       0.49931901       0.83584828      -0.00000417 </v>
    <v>       0.00144143       0.66415443       0.50000418 </v>
   </varray>
  </structure>
  <varray name="forces" >
   <v>      -0.20346687      -0.52965713      -0.00003510 </v>
   <v>      -0.20363506       0.53729641      -0.00020516 </v>
   <v>       0.19763820       0.53957336       0.00020395 </v>
   <v>       0.21029213      -0.53275047       0.00054918 </v>
   <v>       0.21139934       0.53069624       0.00001762 </v>
   <v>      -0.20551044      -0.54622816      -0.00030826 </v>
   <v>       0.19773879      -0.54367481       0.00010723 </v>
   <v>      -0.20445609       0.54474455      -0.00032946 </v>
  </varray>
  <varray name="stress" >
   <v>     -78.62834840      -0.05933353      -0.00171300 </v>
   <v>      -0.05932658    -210.60523977       0.00156918 </v>
   <v>      -0.00171045       0.00156693      25.26621626 </v>
  </varray>
  <energy>
   <i name="e_fr_energy">    -73.31963818</i>
   <i name="e_wo_entrp">    -73.31963818</i>
   <i name="e_0_energy">      0.00000000</i>
  </energy>
 </calculation>
 <calculation>
  <scstep>
   <time name="diag">    0.07    0.07</time>
   <time name="diis">    0.26    0.26</time>
   <time name="orth">    0.01    0.01</time>
   <time name="total">    0.41    0.41</time>
   <energy>
    <i name="alphaZ">     43.34834470</i>
    <i name="ewald">   -863.75103981</i>
    <i name="hartreedc">   -425.38438628</i>
    <i name="XCdc">    115.96384561</i>
    <i name="pawpsdc">    199.27827993</i>
    <i name="pawaedc">   -210.06814233</i>
    <i name="eentropy">      0.00000000</i>
    <i name="bandstr">   -110.25329051</i>
    <i name="atom">   1177.21277265</i>
    <i name="e_fr_energy">    -73.65361604</i>
    <i name="e_wo_entrp">    -73.65361604</i>
    <i name="e_0_energy">    -73.65361604</i>
   </energy>
  </scstep>
  <scstep>
   <time name="diag">    0.07    0.07</time>
   <time name="diis">    0.24    0.24</time>
   <time name="orth">    0.01    0.01</time>
   <time name="total">    0.39    0.40</time>
   <energy>
    <i name="e_fr_energy">    -73.36260187</i>
    <i name="e_wo_entrp">    -73.36260187</i>
    <i name="e_0_energy">    -73.36260187</i>
   </energy>
  </scstep>
  <scstep>
   <time name="diag">    0.09    0.09</time>
   <time name="diis">    0.25    0.25</time>
   <time name="orth">    0.01    0.01</time>
   <time name="total">    0.41    0.43</time>
   <energy>
    <i name="e_fr_energy">    -73.36325659</i>
    <i name="e_wo_entrp">    -73.36325659</i>
    <i name="e_0_energy">    -73.36325659</i>
   </energy>
  </scstep>
  <scstep>
   <time name="diag">    0.07    0.07</time>
   <time name="diis">    0.18    0.18</time>
   <time name="orth">    0.01    0.01</time>
   <time name="total">    0.29    0.30</time>
   <energy>
    <i name="alphaZ">     43.34834470</i>
    <i name="ewald">   -863.75103981</i>
    <i name="hartreedc">   -405.62365316</i>
    <i name="XCdc">    114.83978933</i>
    <i name="pawpsdc">    202.34746112</i>
    <i name="pawaedc">   -213.20058554</i>
    <i name="eentropy">      0.00000000</i>
    <i name="bandstr">   -128.53628946</i>
    <i name="atom">   1177.21277265</i>
    <i name="e_fr_energy">    -73.36320016</i>
    <i name="e_wo_entrp">    -73.36320016</i>
    <i name="e_0_energy">    -73.36320016</i>
   </energy>
  </scstep>
  <structure>
   <crystal>
    <varray name="basis" >
     <v>       2.46457347       0.00001259       0.00000883 </v>
     <v>       0.00002180       4.32536128       0.00004218 </v>
     <v>       0.00002407       0.00006636       7.03754543 </v>
    </varray>
    <i name="volume">     75.02143536</i>
    <varray name="rec_basis" >
     <v>       0.40574972      -0.00000205      -0.00000139 </v>
     <v>      -0.00000118       0.23119456      -0.00000218 </v>
     <v>      -0.00000051      -0.00000139       0.14209500 </v>
    </varray>
   </crystal>
   <varray name="positions" >
    <v>       0.00097631       0.00042070       0.50000164 </v>
    <v>       0.00097423      -0.00043544      -0.00000035 </v>
    <v>       0.49978722       0.16517316       0.49999913 </v>
    <v>       0.49979743       0.50042530       0.49999764 </v>
    <v>       0.49978685       0.49957845      -0.00000022 </v>
    <v>       0.00097426       0.33483621       0.00000216 </v>
    <v>       0.49978613       0.83483445      -0.00000255 </v>
    <v>       0.00097602       0.66516717       0.50000255 </v>
   </varray>
  </structure>
  <varray name="forces" >
   <v>      -0.10788799      -0.34377960      -0.00007798 </v>
   <v>      -0.10810540       0.34855311      -0.00003067 </v>
   <v>       0.11259171       0.30447762       0.00002936 </v>
   <v>       0.11104342      -0.34568126       0.00028753 </v>
   <v>       0.11185010       0.34511858       0.00009006 </v>
   <v>      -0.11637406      -0.30176984      -0.00013775 </v>
   <v>       0.11258098      -0.30711363       0.00014094 </v>
   <v>      -0.11569875       0.30019501      -0.00030149 </v>
  </varray>
  <varray name="stress" >
   <v>     -47.69606478      -0.03926760       0.00247711 </v>
   <v>      -0.03926758    -125.13937385      -0.00033102 </v>
   <v>       0.00247343      -0.00032955      45.48046025 </v>
  </varray>
  <energy>
   <i name="e_fr_energy">    -73.36320016</i>
   <i name="e_wo_entrp">    -73.36320016</i>
   <i name="e_0_energy">      0.00000000</i>
  </energy>
 </calculation>
 <calculation>
  <scstep>
   <time name="diag">    0.07    0.07</time>
   <time name="diis">    0.24    0.24</time>
   <time name="orth">    0.01    0.01</time>
   <time name="total">    0.37    0.37</time>
   <energy>
    <i name="alphaZ">     43.20440250</i>
    <i name="ewald">   -857.91056688</i>
    <i name="hartreedc">   -407.40532431</i>
    <i name="XCdc">    114.72367939</i>
    <i name="pawpsdc">    202.34852759</i>
    <i name="pawaedc">   -213.20223431</i>
    <i name="eentropy">      0.00000000</i>
    <i name="bandstr">   -132.35524438</i>
    <i name="atom">   1177.21277265</i>
    <i name="e_fr_energy">    -73.38398774</i>
    <i name="e_wo_entrp">    -73.38398774</i>
    <i name="e_0_energy">    -73.38398774</i>
   </energy>
  </scstep>
  <scstep>
   <time name="diag">    0.07    0.07</time>
   <time name="diis">    0.26    0.27</time>
   <time name="orth">    0.01    0.01</time>
   <time name="total">    0.41    0.43</time>
   <energy>
    <i name="e_fr_energy">    -73.37793442</i>
    <i name="e_wo_entrp">    -73.37793442</i>
    <i name="e_0_energy">    -73.37793442</i>
   </energy>
  </scstep>
  <scstep>
   <time name="diag">    0.07    0.07</time>
   <time name="diis">    0.22    0.22</time>
   <time name="orth">    0.01    0.01</time>
   <time name="total">    0.36    0.37</time>
   <energy>
    <i name="e_fr_energy">    -73.37788236</i>
    <i name="e_wo_entrp">    -73.37788236</i>
    <i name="e_0_energy">    -73.37788236</i>
   </energy>
  </scstep>
  <scstep>
   <time name="diag">    0.09    0.09</time>
   <time name="diis">    0.16    0.16</time>
   <time name="orth">    0.01    0.01</time>
   <time name="total">    0.30    0.32</time>
   <energy>
    <i name="alphaZ">     43.20440250</i>
    <i name="ewald">   -857.91056688</i>
    <i name="hartreedc">   -410.32671305</i>
    <i name="XCdc">    114.88111927</i>
    <i name="pawpsdc">    202.73000874</i>
    <i name="pawaedc">   -213.58984498</i>
    <i name="eentropy">      0.00000000</i>
    <i name="bandstr">   -129.57907065</i>
    <i name="atom">   1177.21277265</i>
    <i name="e_fr_energy">    -73.37789238</i>
    <i name="e_wo_entrp">    -73.37789238</i>
    <i name="e_0_energy">    -73.37789238</i>
   </energy>
  </scstep>
  <structure>
   <crystal>
    <varray name="basis" >
     <v>       2.46337197       0.00001218       0.00000962 </v>
     <v>       0.00002108       4.32279683       0.00004556 </v>
     <v>       0.00002620       0.00007153       7.06862699 </v>
    </varray>
    <i name="volume">     75.27138096</i>
    <varray name="rec_basis" >
     <v>       0.40594762      -0.00000198      -0.00000150 </v>
     <v>      -0.00000114       0.23133171      -0.00000234 </v>
     <v>      -0.00000055      -0.00000149       0.14147019 </v>
    </varray>
   </crystal>
   <varray name="positions" >
    <v>       0.00092226       0.00026230       0.50000173 </v>
    <v>       0.00091982      -0.00027549      -0.00000039 </v>
    <v>       0.49984573       0.16523106       0.49999908 </v>
    <v>       0.49985521       0.50026619       0.49999757 </v>
    <v>       0.49984462       0.49973753      -0.00000021 </v>
    <v>       0.00091185       0.33478049       0.00000227 </v>
    <v>       0.49984455       0.83477566      -0.00000268 </v>
    <v>       0.00091440       0.66522226       0.50000263 </v>
   </varray>
  </structure>
  <varray name="forces" >
   <v>      -0.09848079      -0.30197415      -0.00017559 </v>
   <v>      -0.09869609       0.30526517       0.00006684 </v>
   <v>       0.10231491       0.26718754      -0.00004140 </v>
   <v>       0.10000904      -0.30309112       0.00020691 </v>
   <v>       0.10064729       0.30313767       0.00020961 </v>
   <v>      -0.10429501      -0.26334272      -0.00014679 </v>
   <v>       0.10209112      -0.26974994       0.00032860 </v>
   <v>      -0.10359047       0.26256755      -0.00044818 </v>
  </varray>
  <varray name="stress" >
   <v>     -42.81533058      -0.03686140       0.00099954 </v>
   <v>      -0.03686366    -117.88687206       0.00160477 </v>
   <v>       0.00099839       0.00160603      40.51084223 </v>
  </varray>
  <energy>
   <i name="e_fr_energy">    -73.37789238</i>
   <i name="e_wo_entrp">    -73.37789238</i>
   <i name="e_0_energy">      0.00000000</i>
  </energy>
 </calculation>
 <calculation>
  <scstep>
   <time name="diag">    0.07    0.07</time>
   <time name="diis">    0.24    0.24</time>
   <time name="orth">    0.01    0.01</time>
   <time name="total">    0.38    0.38</time>
   <energy>
    <i name="alphaZ">     42.78052271</i>
    <i name="ewald">   -840.30555107</i>
    <i name="hartreedc">   -415.56695575</i>
    <i name="XCdc">    114.52579707</i>
    <i name="pawpsdc">    202.60830012</i>
    <i name="pawaedc">   -213.46442187</i>
    <i name="eentropy">      0.00000000</i>
    <i name="bandstr">   -141.25997867</i>
    <i name="atom">   1177.21277265</i>
    <i name="e_fr_energy">    -73.46951481</i>
    <i name="e_wo_entrp">    -73.46951481</i>
    <i name="e_0_energy">    -73.46951481</i>
   </energy>
  </scstep>
  <scstep>
   <time name="diag">    0.07    0.07</time>
   <time name="diis">    0.25    0.25</time>
   <time name="orth">    0.01    0.01</time>
   <time name="total">    0.39    0.40</time>
   <energy>
    <i name="e_fr_energy">    -73.41617477</i>
    <i name="e_wo_entrp">    -73.41617477</i>
    <i name="e_0_energy">    -73.41617477</i>
   </energy>
  </scstep>
  <scstep>
   <time name="diag">    0.07    0.07</time>
   <time name="diis">    0.24    0.25</time>
   <time name="orth">    0.01    0.01</time>
   <time name="total">    0.39    0.40</time>
   <energy>
    <i name="e_fr_energy">    -73.41625391</i>
    <i name="e_wo_entrp">    -73.41625391</i>
    <i name="e_0_energy">    -73.41625391</i>
   </energy>
  </scstep>
  <scstep>
   <time name="diag">    0.07    0.07</time>
   <time name="diis">    0.17    0.17</time>
   <time name="orth">    0.01    0.01</time>
   <time name="total">    0.29    0.29</time>
   <energy>
    <i name="alphaZ">     42.78052271</i>
    <i name="ewald">   -840.30555107</i>
    <i name="hartreedc">   -423.98668988</i>
    <i name="XCdc">    114.96967474</i>
    <i name="pawpsdc">    203.57455694</i>
    <i name="pawaedc">   -214.44334838</i>
    <i name="eentropy">      0.00000000</i>
    <i name="bandstr">   -133.21819089</i>
    <i name="atom">   1177.21277265</i>
    <i name="e_fr_energy">    -73.41625317</i>
    <i name="e_wo_entrp">    -73.41625317</i>
    <i name="e_0_energy">    -73.41625317</i>
   </energy>
  </scstep>
  <structure>
   <crystal>
    <varray name="basis" >
     <v>       2.45976747       0.00001095       0.00001198 </v>
     <v>       0.00001893       4.31510346       0.00005570 </v>
     <v>       0.00003259       0.00008701       7.16187167 </v>
    </varray>
    <i name="volume">     76.01718805</i>
    <varray name="rec_basis" >
     <v>       0.40654249      -0.00000178      -0.00000185 </v>
     <v>      -0.00000103       0.23174415      -0.00000282 </v>
     <v>      -0.00000068      -0.00000180       0.13962830 </v>
    </varray>
   </crystal>
   <varray name="positions" >
    <v>       0.00076004      -0.00021321       0.50000200 </v>
    <v>       0.00075650       0.00020465      -0.00000050 </v>
    <v>       0.50002136       0.16540486       0.49999893 </v>
    <v>       0.50002865       0.49978856       0.49999737 </v>
    <v>       0.50001801       0.50021506      -0.00000017 </v>
    <v>       0.00072455       0.33461324       0.00000258 </v>
    <v>       0.50001991       0.83459918      -0.00000308 </v>
    <v>       0.00072945       0.66538766       0.50000286 </v>
   </varray>
  </structure>
  <varray name="forces" >
   <v>      -0.06560116      -0.19346358      -0.00028685 </v>
   <v>      -0.06582220       0.19754575      -0.00033695 </v>
   <v>       0.06636717       0.14309868      -0.00009900 </v>
   <v>       0.06852366      -0.19396158       0.00014641 </v>
   <v>       0.06903464       0.19336354      -0.00018228 </v>
   <v>      -0.07131591      -0.15448626      -0.00044190 </v>
   <v>       0.06971688      -0.14717342       0.00169866 </v>
   <v>      -0.07090310       0.15507687      -0.00049809 </v>
  </varray>
  <varray name="stress" >
   <v>     -26.57621319      -0.00298715      -0.00952607 </v>
   <v>      -0.00299109     -95.94164630       0.01731740 </v>
   <v>      -0.00952908       0.01731791      33.71916627 </v>
  </varray>
  <energy>
   <i name="e_fr_energy">    -73.41625317</i>
   <i name="e_wo_entrp">    -73.41625317</i>
   <i name="e_0_energy">      0.00000000</i>
  </energy>
 </calculation>
 <calculation>
  <scstep>
   <time name="diag">    0.07    0.07</time>
   <time name="diis">    0.25    0.25</time>
   <time name="orth">    0.01    0.01</time>
   <time name="total">    0.39    0.39</time>
   <energy>
    <i name="alphaZ">     41.96702562</i>
    <i name="ewald">   -804.71571995</i>
    <i name="hartreedc">   -435.06909769</i>
    <i name="XCdc">    114.29027707</i>
    <i name="pawpsdc">    203.47863162</i>
    <i name="pawaedc">   -214.34414714</i>
    <i name="eentropy">      0.00000000</i>
    <i name="bandstr">   -156.49614573</i>
    <i name="atom">   1177.21277265</i>
    <i name="e_fr_energy">    -73.67640354</i>
    <i name="e_wo_entrp">    -73.67640354</i>
    <i name="e_0_energy">    -73.67640354</i>
   </energy>
  </scstep>
  <scstep>
   <time name="diag">    0.07    0.07</time>
   <time name="diis">    0.25    0.25</time>
   <time name="orth">    0.01    0.01</time>
   <time name="total">    0.39    0.40</time>
   <energy>
    <i name="e_fr_energy">    -73.46626326</i>
    <i name="e_wo_entrp">    -73.46626326</i>
    <i name="e_0_energy">    -73.46626326</i>
   </energy>
  </scstep>
  <scstep>
   <time name="diag">    0.07    0.07</time>
   <time name="diis">    0.25    0.25</time>
   <time name="orth">    0.01    0.01</time>
   <time name="total">    0.39    0.46</time>
   <energy>
    <i name="e_fr_energy">    -73.46664740</i>
    <i name="e_wo_entrp">    -73.46664740</i>
    <i name="e_0_energy">    -73.46664740</i>
   </energy>
  </scstep>
  <scstep>
   <time name="diag">    0.07    0.07</time>
   <time name="diis">    0.19    0.19</time>
   <time name="orth">    0.01    0.01</time>
   <time name="total">    0.30    0.31</time>
   <energy>
    <i name="alphaZ">     41.96702562</i>
    <i name="ewald">   -804.71571995</i>
    <i name="hartreedc">   -452.18205752</i>
    <i name="XCdc">    115.16893462</i>
    <i name="pawpsdc">    205.35807769</i>
    <i name="pawaedc">   -216.24618679</i>
    <i name="eentropy">      0.00000000</i>
    <i name="bandstr">   -140.02950177</i>
    <i name="atom">   1177.21277265</i>
    <i name="e_fr_energy">    -73.46665544</i>
    <i name="e_wo_entrp">    -73.46665544</i>
    <i name="e_0_energy">    -73.46665544</i>
   </energy>
  </scstep>
  <structure>
   <crystal>
    <varray name="basis" >
     <v>       2.45255846       0.00000849       0.00001672 </v>
     <v>       0.00001463       4.29971672       0.00007599 </v>
     <v>       0.00004536       0.00011798       7.34836103 </v>
    </varray>
    <i name="volume">     77.49072019</i>
    <varray name="rec_basis" >
     <v>       0.40773748      -0.00000139      -0.00000252 </v>
     <v>      -0.00000081       0.23257346      -0.00000373 </v>
     <v>      -0.00000093      -0.00000241       0.13608477 </v>
    </varray>
   </crystal>
   <varray name="positions" >
    <v>       0.00043512      -0.00116590       0.50000253 </v>
    <v>       0.00042937       0.00116664      -0.00000071 </v>
    <v>       0.50037312       0.16575307       0.49999862 </v>
    <v>       0.50037602       0.49883160       0.49999697 </v>
    <v>       0.50036529       0.50117182      -0.00000009 </v>
    <v>       0.00034940       0.33427814       0.00000321 </v>
    <v>       0.50037112       0.83424560      -0.00000385 </v>
    <v>       0.00035901       0.66571904       0.50000332 </v>
   </varray>
  </structure>
  <varray name="forces" >
   <v>      -0.01168417       0.08834584      -0.00014543 </v>
   <v>      -0.01187489      -0.08867036      -0.00008244 </v>
   <v>       0.01129328      -0.09148796       0.00009388 </v>
   <v>      -0.00812016       0.08891925       0.00033869 </v>
   <v>      -0.00830543      -0.09017936       0.00016296 </v>
   <v>       0.00897696       0.08216312      -0.00017635 </v>
   <v>       0.01065629       0.09205919       0.00020864 </v>
   <v>       0.00905812      -0.08114973      -0.00039994 </v>
  </varray>
  <varray name="stress" >
   <v>       3.56292138      -0.02874410       0.00745467 </v>
   <v>      -0.02874911     -51.49643362       0.00327450 </v>
   <v>       0.00745227       0.00327471      19.92831350 </v>
  </varray>
  <energy>
   <i name="e_fr_energy">    -73.46665544</i>
   <i name="e_wo_entrp">    -73.46665544</i>
   <i name="e_0_energy">      0.00000000</i>
  </energy>
 </calculation>
 <calculation>
  <scstep>
   <time name="diag">    0.07    0.07</time>
   <time name="diis">    0.25    0.25</time>
   <time name="orth">    0.01    0.01</time>
   <time name="total">    0.39    0.39</time>
   <energy>
    <i name="alphaZ">     40.46561309</i>
    <i name="ewald">   -731.98625898</i>
    <i name="hartreedc">   -476.01034836</i>
    <i name="XCdc">    113.88377675</i>
    <i name="pawpsdc">    205.30605064</i>
    <i name="pawaedc">   -216.19253667</i>
    <i name="eentropy">      0.00000000</i>
    <i name="bandstr">   -186.94262451</i>
    <i name="atom">   1177.21277265</i>
    <i name="e_fr_energy">    -74.26355539</i>
    <i name="e_wo_entrp">    -74.26355539</i>
    <i name="e_0_energy">    -74.26355539</i>
   </energy>
  </scstep>
  <scstep>
   <time name="diag">    0.07    0.07</time>
   <time name="diis">    0.25    0.25</time>
   <time name="orth">    0.01    0.01</time>
   <time name="total">    0.39    0.41</time>
   <energy>
    <i name="e_fr_energy">    -73.45656104</i>
    <i name="e_wo_entrp">    -73.45656104</i>
    <i name="e_0_energy">    -73.45656104</i>
   </energy>
  </scstep>
  <scstep>
   <time name="diag">    0.07    0.07</time>
   <time name="diis">    0.25    0.25</time>
   <time name="orth">    0.01    0.01</time>
   <time name="total">    0.39    1.05</time>
   <energy>
    <i name="e_fr_energy">    -73.45415916</i>
    <i name="e_wo_entrp">    -73.45415916</i>
    <i name="e_0_energy">    -73.45415916</i>
   </energy>
  </scstep>
  <scstep>
   <time name="diag">    0.07    0.07</time>
   <time name="diis">    0.25    0.25</time>
   <time name="orth">    0.01    0.01</time>
   <time name="total">    0.40    1.30</time>
   <energy>
    <i name="e_fr_energy">    -73.45429278</i>
    <i name="e_wo_entrp">    -73.45429278</i>
    <i name="e_0_energy">    -73.45429278</i>
   </energy>
  </scstep>
  <scstep>
   <time name="diag">    0.07    0.07</time>
   <time name="diis">    0.19    0.19</time>
   <time name="orth">    0.01    0.01</time>
   <time name="total">    0.30    0.33</time>
   <energy>
    <i name="alphaZ">     40.46561309</i>
    <i name="ewald">   -731.98625898</i>
    <i name="hartreedc">   -511.01381056</i>
    <i name="XCdc">    115.58993357</i>
    <i name="pawpsdc">    209.47472114</i>
    <i name="pawaedc">   -220.40575329</i>
    <i name="eentropy">      0.00000000</i>
    <i name="bandstr">   -152.79150838</i>
    <i name="atom">   1177.21277265</i>
    <i name="e_fr_energy">    -73.45429077</i>
    <i name="e_wo_entrp">    -73.45429077</i>
    <i name="e_0_energy">    -73.45429077</i>
   </energy>
  </scstep>
  <structure>
   <crystal>
    <varray name="basis" >
     <v>       2.43814045       0.00000358       0.00002618 </v>
     <v>       0.00000603       4.26894324       0.00011657 </v>
     <v>       0.00007092       0.00017993       7.72133975 </v>
    </varray>
    <i name="volume">     80.36589074</i>
    <varray name="rec_basis" >
     <v>       0.41014864      -0.00000058      -0.00000377 </v>
     <v>      -0.00000034       0.23425001      -0.00000546 </v>
     <v>      -0.00000139      -0.00000354       0.12951120 </v>
    </varray>
   </crystal>
   <varray name="positions" >
    <v>      -0.00021663      -0.00307812       0.50000358 </v>
    <v>      -0.00022681       0.00309751      -0.00000113 </v>
    <v>       0.50107872       0.16645199       0.49999803 </v>
    <v>       0.50107280       0.49691082       0.49999620 </v>
    <v>       0.50106191       0.50309218       0.00000006 </v>
    <v>      -0.00040312       0.33360554       0.00000442 </v>
    <v>       0.50107562       0.83353591      -0.00000536 </v>
    <v>      -0.00038404       0.66638416       0.50000420 </v>
   </varray>
  </structure>
  <varray name="forces" >
   <v>       0.13879747       0.61750276      -0.00014686 </v>
   <v>       0.13876296      -0.62512580      -0.00020767 </v>
   <v>      -0.13955590      -0.64244855       0.00021377 </v>
   <v>      -0.16209589       0.62244722       0.00046297 </v>
   <v>      -0.16318526      -0.62378513       0.00016195 </v>
   <v>       0.16417522       0.61755821      -0.00024313 </v>
   <v>      -0.14037336       0.64689458       0.00022234 </v>
   <v>       0.16347476      -0.61304329      -0.00046337 </v>
  </varray>
  <varray name="stress" >
   <v>      64.69942176      -0.01463833       0.00330919 </v>
   <v>      -0.01464390      34.94919097       0.00686584 </v>
   <v>       0.00330817       0.00686361     -10.49047796 </v>
  </varray>
  <energy>
   <i name="e_fr_energy">    -73.45429077</i>
   <i name="e_wo_entrp">    -73.45429077</i>
   <i name="e_0_energy">      0.00000000</i>
  </energy>
 </calculation>
 <calculation>
  <scstep>
   <time name="diag">    0.07    0.07</time>
   <time name="diis">    0.25    0.25</time>
   <time name="orth">    0.01    0.01</time>
   <time name="total">    0.39    0.39</time>
   <energy>
    <i name="alphaZ">     41.32223189</i>
    <i name="ewald">   -774.67613343</i>
    <i name="hartreedc">   -495.58677984</i>
    <i name="XCdc">    116.32343224</i>
    <i name="pawpsdc">    209.37342326</i>
    <i name="pawaedc">   -220.30068864</i>
    <i name="eentropy">      0.00000000</i>
    <i name="bandstr">   -127.40264877</i>
    <i name="atom">   1177.21277265</i>
    <i name="e_fr_energy">    -73.73439064</i>
    <i name="e_wo_entrp">    -73.73439064</i>
    <i name="e_0_energy">    -73.73439064</i>
   </energy>
  </scstep>
  <scstep>
   <time name="diag">    0.07    0.07</time>
   <time name="diis">    0.25    0.25</time>
   <time name="orth">    0.01    0.01</time>
   <time name="total">    0.39    0.41</time>
   <energy>
    <i name="e_fr_energy">    -73.47861177</i>
    <i name="e_wo_entrp">    -73.47861177</i>
    <i name="e_0_energy">    -73.47861177</i>
   </energy>
  </scstep>
  <scstep>
   <time name="diag">    0.07    0.07</time>
   <time name="diis">    0.25    0.25</time>
   <time name="orth">    0.01    0.01</time>
   <time name="total">    0.39    0.43</time>
   <energy>
    <i name="e_fr_energy">    -73.47935784</i>
    <i name="e_wo_entrp">    -73.47935784</i>
    <i name="e_0_energy">    -73.47935784</i>
   </energy>
  </scstep>
  <scstep>
   <time name="diag">    0.07    0.07</time>
   <time name="diis">    0.21    0.21</time>
   <time name="orth">    0.01    0.01</time>
   <time name="total">    0.32    0.44</time>
   <energy>
    <i name="alphaZ">     41.32223189</i>
    <i name="ewald">   -774.67613343</i>
    <i name="hartreedc">   -476.40939629</i>
    <i name="XCdc">    115.34877919</i>
    <i name="pawpsdc">    207.21324615</i>
    <i name="pawaedc">   -218.12393089</i>
    <i name="eentropy">      0.00000000</i>
    <i name="bandstr">   -145.36690353</i>
    <i name="atom">   1177.21277265</i>
    <i name="e_fr_energy">    -73.47933426</i>
    <i name="e_wo_entrp">    -73.47933426</i>
    <i name="e_0_energy">    -73.47933426</i>
   </energy>
  </scstep>
  <structure>
   <crystal>
    <varray name="basis" >
     <v>       2.44655312       0.00000645       0.00002066 </v>
     <v>       0.00001105       4.28689905       0.00009289 </v>
     <v>       0.00005601       0.00014378       7.50371294 </v>
    </varray>
    <i name="volume">     78.69988845</i>
    <varray name="rec_basis" >
     <v>       0.40873832      -0.00000105      -0.00000305 </v>
     <v>      -0.00000061       0.23326885      -0.00000447 </v>
     <v>      -0.00000113      -0.00000289       0.13326736 </v>
    </varray>
   </crystal>
   <varray name="positions" >
    <v>       0.00016591      -0.00195433       0.50000299 </v>
    <v>       0.00015832       0.00196276      -0.00000089 </v>
    <v>       0.50066458       0.16604124       0.49999836 </v>
    <v>       0.50066384       0.49803964       0.49999663 </v>
    <v>       0.50065304       0.50196361      -0.00000002 </v>
    <v>       0.00003856       0.33400082       0.00000375 </v>
    <v>       0.50066213       0.83395298      -0.00000452 </v>
    <v>       0.00005208       0.66599328       0.50000371 </v>
   </varray>
  </structure>
  <varray name="forces" >
   <v>       0.04357803       0.26339796      -0.00024459 </v>
   <v>       0.04369156      -0.26805749      -0.00030129 </v>
   <v>      -0.05075814      -0.31063137       0.00001855 </v>
   <v>      -0.05839205       0.26550066       0.00031593 </v>
   <v>      -0.05898799      -0.26807052       0.00000445 </v>
   <v>       0.06626097       0.29653012      -0.00034770 </v>
   <v>      -0.05134205       0.31755286       0.00102737 </v>
   <v>       0.06594967      -0.29622222      -0.00047272 </v>
  </varray>
  <varray name="stress" >
   <v>      27.72347784      -0.01808208       0.00007360 </v>
   <v>      -0.01808877     -16.85106411      -0.00945037 </v>
   <v>       0.00007339      -0.00944944       2.39959332 </v>
  </varray>
  <energy>
   <i name="e_fr_energy">    -73.47933426</i>
   <i name="e_wo_entrp">    -73.47933426</i>
   <i name="e_0_energy">      0.00000000</i>
  </energy>
 </calculation>
 <calculation>
  <scstep>
   <time name="diag">    0.07    0.07</time>
   <time name="diis">    0.25    0.25</time>
   <time name="orth">    0.01    0.01</time>
   <time name="total">    0.39    0.39</time>
   <energy>
    <i name="alphaZ">     41.16772119</i>
    <i name="ewald">   -768.82797100</i>
    <i name="hartreedc">   -477.90262879</i>
    <i name="XCdc">    115.19970661</i>
    <i name="pawpsdc">    206.94788339</i>
    <i name="pawaedc">   -217.85098876</i>
    <i name="eentropy">      0.00000000</i>
    <i name="bandstr">   -149.43782693</i>
    <i name="atom">   1177.21277265</i>
    <i name="e_fr_energy">    -73.49133162</i>
    <i name="e_wo_entrp">    -73.49133162</i>
    <i name="e_0_energy">    -73.49133162</i>
   </energy>
  </scstep>
  <scstep>
   <time name="diag">    0.07    0.07</time>
   <time name="diis">    0.24    0.24</time>
   <time name="orth">    0.01    0.01</time>
   <time name="total">    0.39    0.58</time>
   <energy>
    <i name="e_fr_energy">    -73.48640205</i>
    <i name="e_wo_entrp">    -73.48640205</i>
    <i name="e_0_energy">    -73.48640205</i>
   </energy>
  </scstep>
  <scstep>
   <time name="diag">    0.07    0.07</time>
   <time name="diis">    0.25    0.25</time>
   <time name="orth">    0.01    0.01</time>
   <time name="total">    0.39    0.61</time>
   <energy>
    <i name="e_fr_energy">    -73.48631719</i>
    <i name="e_wo_entrp">    -73.48631719</i>
    <i name="e_0_energy">    -73.48631719</i>
   </energy>
  </scstep>
  <scstep>
   <time name="diag">    0.07    0.07</time>
   <time name="diis">    0.16    0.16</time>
   <time name="orth">    0.01    0.01</time>
   <time name="total">    0.28    0.45</time>
   <energy>
    <i name="alphaZ">     41.16772119</i>
    <i name="ewald">   -768.82797100</i>
    <i name="hartreedc">   -480.84327430</i>
    <i name="XCdc">    115.35138250</i>
    <i name="pawpsdc">    207.18326323</i>
    <i name="pawaedc">   -218.08973068</i>
    <i name="eentropy">      0.00000000</i>
    <i name="bandstr">   -146.64040346</i>
    <i name="atom">   1177.21277265</i>
    <i name="e_fr_energy">    -73.48623986</i>
    <i name="e_wo_entrp">    -73.48623985</i>
    <i name="e_0_energy">    -73.48623985</i>
   </energy>
  </scstep>
  <structure>
   <crystal>
    <varray name="basis" >
     <v>       2.44924339       0.00000362       0.00002143 </v>
     <v>       0.00000612       4.28058447       0.00009389 </v>
     <v>       0.00005816       0.00014465       7.53470136 </v>
    </varray>
    <i name="volume">     78.99526489</i>
    <varray name="rec_basis" >
     <v>       0.40828935      -0.00000058      -0.00000315 </v>
     <v>      -0.00000035       0.23361296      -0.00000448 </v>
     <v>      -0.00000116      -0.00000291       0.13271926 </v>
    </varray>
   </crystal>
   <varray name="positions" >
    <v>       0.00027786      -0.00154282       0.50000277 </v>
    <v>       0.00027036       0.00154282      -0.00000128 </v>
    <v>       0.50053013       0.16543824       0.49999835 </v>
    <v>       0.50050048       0.49845494       0.49999694 </v>
    <v>       0.50048747       0.50154285       0.00000000 </v>
    <v>       0.00022681       0.33457604       0.00000341 </v>
    <v>       0.50052543       0.83456979      -0.00000340 </v>
    <v>       0.00023990       0.66541814       0.50000321 </v>
   </varray>
  </structure>
  <varray name="forces" >
   <v>       0.02657244       0.08314427      -0.00016750 </v>
   <v>       0.02652302      -0.08448054      -0.00000593 </v>
   <v>      -0.03020411      -0.11970430       0.00016805 </v>
   <v>      -0.02257844       0.08443728       0.00036273 </v>
   <v>      -0.02275432      -0.08271579       0.00014081 </v>
   <v>       0.02640982       0.11705344      -0.00025574 </v>
   <v>      -0.03059457       0.11702922       0.00009609 </v>
   <v>       0.02662615      -0.11476357      -0.00033850 </v>
  </varray>
  <varray name="stress" >
   <v>      22.37412463      -0.00329947      -0.00095935 </v>
   <v>      -0.00329509      -6.41297201       0.00404849 </v>
   <v>      -0.00095763       0.00404512       1.53940916 </v>
  </varray>
  <energy>
   <i name="e_fr_energy">    -73.48623986</i>
   <i name="e_wo_entrp">    -73.48623985</i>
   <i name="e_0_energy">      0.00000000</i>
  </energy>
 </calculation>
 <calculation>
  <scstep>
   <time name="diag">    0.08    0.08</time>
   <time name="diis">    0.24    0.24</time>
   <time name="orth">    0.01    0.01</time>
   <time name="total">    0.38    0.38</time>
   <energy>
    <i name="alphaZ">     41.11345060</i>
    <i name="ewald">   -766.76069362</i>
    <i name="hartreedc">   -481.34632658</i>
    <i name="XCdc">    115.29724287</i>
    <i name="pawpsdc">    207.11969370</i>
    <i name="pawaedc">   -218.02396178</i>
    <i name="eentropy">      0.00000000</i>
    <i name="bandstr">   -148.10028711</i>
    <i name="atom">   1177.21277265</i>
    <i name="e_fr_energy">    -73.48810927</i>
    <i name="e_wo_entrp">    -73.48810927</i>
    <i name="e_0_energy">    -73.48810927</i>
   </energy>
  </scstep>
  <scstep>
   <time name="diag">    0.07    0.07</time>
   <time name="diis">    0.24    0.24</time>
   <time name="orth">    0.01    0.01</time>
   <time name="total">    0.38    0.46</time>
   <energy>
    <i name="e_fr_energy">    -73.48748872</i>
    <i name="e_wo_entrp">    -73.48748872</i>
    <i name="e_0_energy">    -73.48748872</i>
   </energy>
  </scstep>
  <scstep>
   <time name="diag">    0.07    0.07</time>
   <time name="diis">    0.16    0.16</time>
   <time name="orth">    0.01    0.01</time>
   <time name="total">    0.30    0.40</time>
   <energy>
    <i name="e_fr_energy">    -73.48749236</i>
    <i name="e_wo_entrp">    -73.48749236</i>
    <i name="e_0_energy">    -73.48749236</i>
   </energy>
  </scstep>
  <scstep>
   <time name="diag">    0.07    0.07</time>
   <time name="diis">    0.15    0.16</time>
   <time name="orth">    0.01    0.01</time>
   <time name="total">    0.27    0.28</time>
   <energy>
    <i name="alphaZ">     41.11345060</i>
    <i name="ewald">   -766.76069362</i>
    <i name="hartreedc">   -482.29988634</i>
    <i name="XCdc">    115.34589950</i>
    <i name="pawpsdc">    207.14201581</i>
    <i name="pawaedc">   -218.04550569</i>
    <i name="eentropy">      0.00000000</i>
    <i name="bandstr">   -147.19554571</i>
    <i name="atom">   1177.21277265</i>
    <i name="e_fr_energy">    -73.48749280</i>
    <i name="e_wo_entrp">    -73.48749280</i>
    <i name="e_0_energy">    -73.48749280</i>
   </energy>
  </scstep>
  <structure>
   <crystal>
    <varray name="basis" >
     <v>       2.45019421       0.00000262       0.00002170 </v>
     <v>       0.00000438       4.27835270       0.00009424 </v>
     <v>       0.00005893       0.00014495       7.54565361 </v>
    </varray>
    <i name="volume">     79.09954024</i>
    <varray name="rec_basis" >
     <v>       0.40813091      -0.00000042      -0.00000319 </v>
     <v>      -0.00000025       0.23373482      -0.00000449 </v>
     <v>      -0.00000117      -0.00000292       0.13252662 </v>
    </varray>
   </crystal>
   <varray name="positions" >
    <v>       0.00031739      -0.00139716       0.50000269 </v>
    <v>       0.00030992       0.00139418      -0.00000142 </v>
    <v>       0.50048267       0.16522480       0.49999834 </v>
    <v>       0.50044281       0.49860194       0.49999706 </v>
    <v>       0.50042901       0.50139392       0.00000001 </v>
    <v>       0.00029327       0.33477964       0.00000329 </v>
    <v>       0.50047717       0.83478810      -0.00000301 </v>
    <v>       0.00030621       0.66521457       0.50000304 </v>
   </varray>
  </structure>
  <varray name="forces" >
   <v>       0.02078997       0.02239036      -0.00041760 </v>
   <v>       0.02066869      -0.02226287      -0.00027672 </v>
   <v>      -0.01812105      -0.05362560      -0.00008803 </v>
   <v>      -0.01712997       0.01925056       0.00228442 </v>
   <v>      -0.02140629      -0.01472692      -0.00015425 </v>
   <v>       0.01674669       0.05212327      -0.00056030 </v>
   <v>      -0.01855302       0.04866541      -0.00023651 </v>
   <v>       0.01700497      -0.05181421      -0.00055101 </v>
  </varray>
  <varray name="stress" >
   <v>      20.29287101      -0.04005411      -0.01812096 </v>
   <v>      -0.04005820      -2.36816444      -0.01506310 </v>
   <v>      -0.01811720      -0.01506285       3.37881247 </v>
  </varray>
  <energy>
   <i name="e_fr_energy">    -73.48749280</i>
   <i name="e_wo_entrp">    -73.48749280</i>
   <i name="e_0_energy">      0.00000000</i>
  </energy>
 </calculation>
 <calculation>
  <scstep>
   <time name="diag">    0.07    0.07</time>
   <time name="diis">    0.25    0.26</time>
   <time name="orth">    0.01    0.01</time>
   <time name="total">    0.40    0.40</time>
   <energy>
    <i name="alphaZ">     41.08281918</i>
    <i name="ewald">   -767.63731188</i>
    <i name="hartreedc">   -481.66053045</i>
    <i name="XCdc">    115.31814054</i>
    <i name="pawpsdc">    207.14654675</i>
    <i name="pawaedc">   -218.05016965</i>
    <i name="eentropy">      0.00000000</i>
    <i name="bandstr">   -146.90066120</i>
    <i name="atom">   1177.21277265</i>
    <i name="e_fr_energy">    -73.48839405</i>
    <i name="e_wo_entrp">    -73.48839405</i>
    <i name="e_0_energy">    -73.48839405</i>
   </energy>
  </scstep>
  <scstep>
   <time name="diag">    0.07    0.07</time>
   <time name="diis">    0.25    0.25</time>
   <time name="orth">    0.01    0.01</time>
   <time name="total">    0.40    0.40</time>
   <energy>
    <i name="e_fr_energy">    -73.48832116</i>
    <i name="e_wo_entrp">    -73.48832116</i>
    <i name="e_0_energy">    -73.48832116</i>
   </energy>
  </scstep>
  <scstep>
   <time name="diag">    0.08    0.08</time>
   <time name="diis">    0.18    0.18</time>
   <time name="orth">    0.01    0.01</time>
   <time name="total">    0.34    0.44</time>
   <energy>
    <i name="e_fr_energy">    -73.48828766</i>
    <i name="e_wo_entrp">    -73.48828766</i>
    <i name="e_0_energy">    -73.48828766</i>
   </energy>
  </scstep>
  <scstep>
   <time name="diag">    0.07    0.07</time>
   <time name="diis">    0.16    0.16</time>
   <time name="orth">    0.01    0.01</time>
   <time name="total">    0.27    0.29</time>
   <energy>
    <i name="alphaZ">     41.08281918</i>
    <i name="ewald">   -767.63731188</i>
    <i name="hartreedc">   -481.44688432</i>
    <i name="XCdc">    115.31140868</i>
    <i name="pawpsdc">    206.89465835</i>
    <i name="pawaedc">   -217.79486432</i>
    <i name="eentropy">      0.00000000</i>
    <i name="bandstr">   -147.11091400</i>
    <i name="atom">   1177.21277265</i>
    <i name="e_fr_energy">    -73.48831564</i>
    <i name="e_wo_entrp">    -73.48831564</i>
    <i name="e_0_energy">    -73.48831564</i>
   </energy>
  </scstep>
  <structure>
   <crystal>
    <varray name="basis" >
     <v>       2.45278907      -0.00000285       0.00001894 </v>
     <v>      -0.00000518       4.27863278       0.00009027 </v>
     <v>       0.00005052       0.00013801       7.54279723 </v>
    </varray>
    <i name="volume">     79.15851699</i>
    <varray name="rec_basis" >
     <v>       0.40769914       0.00000049      -0.00000273 </v>
     <v>       0.00000027       0.23371952      -0.00000428 </v>
     <v>      -0.00000102      -0.00000280       0.13257681 </v>
    </varray>
   </crystal>
   <varray name="positions" >
    <v>       0.00038390      -0.00140442       0.50000218 </v>
    <v>       0.00037594       0.00140291      -0.00000172 </v>
    <v>       0.50042987       0.16518828       0.49999823 </v>
    <v>       0.50039799       0.49858704       0.49999994 </v>
    <v>       0.50036759       0.50141983      -0.00000019 </v>
    <v>       0.00033308       0.33481668       0.00000261 </v>
    <v>       0.50042298       0.83481145      -0.00000347 </v>
    <v>       0.00034710       0.66517823       0.50000240 </v>
   </varray>
  </structure>
  <varray name="forces" >
   <v>       0.00376047       0.02249815      -0.00018414 </v>
   <v>       0.00391958      -0.02251644      -0.00004493 </v>
   <v>      -0.00414662      -0.05775420       0.00025737 </v>
   <v>      -0.00426121       0.02519177       0.00008968 </v>
   <v>      -0.00234630      -0.02733844       0.00009019 </v>
   <v>       0.00303899       0.05669536      -0.00022346 </v>
   <v>      -0.00519237       0.05796501       0.00004614 </v>
   <v>       0.00522746      -0.05474121      -0.00003086 </v>
  </varray>
  <varray name="stress" >
   <v>      10.07971790       0.02978724       0.00201129 </v>
   <v>       0.02978073      -5.25860438       0.00413797 </v>
   <v>       0.00201403       0.00414157       1.99990966 </v>
  </varray>
  <energy>
   <i name="e_fr_energy">    -73.48831564</i>
   <i name="e_wo_entrp">    -73.48831564</i>
   <i name="e_0_energy">      0.00000000</i>
  </energy>
 </calculation>
 <calculation>
  <scstep>
   <time name="diag">    0.07    0.07</time>
   <time name="diis">    0.24    0.24</time>
   <time name="orth">    0.01    0.01</time>
   <time name="total">    0.38    0.38</time>
   <energy>
    <i name="alphaZ">     41.05392290</i>
    <i name="ewald">   -768.46367260</i>
    <i name="hartreedc">   -480.84093577</i>
    <i name="XCdc">    115.28466774</i>
    <i name="pawpsdc">    206.89150897</i>
    <i name="pawaedc">   -217.79203047</i>
    <i name="eentropy">      0.00000000</i>
    <i name="bandstr">   -146.83494779</i>
    <i name="atom">   1177.21277265</i>
    <i name="e_fr_energy">    -73.48871436</i>
    <i name="e_wo_entrp">    -73.48871436</i>
    <i name="e_0_energy">    -73.48871436</i>
   </energy>
  </scstep>
  <scstep>
   <time name="diag">    0.07    0.07</time>
   <time name="diis">    0.16    0.16</time>
   <time name="orth">    0.01    0.01</time>
   <time name="total">    0.31    0.35</time>
   <energy>
    <i name="e_fr_energy">    -73.48861999</i>
    <i name="e_wo_entrp">    -73.48861999</i>
    <i name="e_0_energy">    -73.48861999</i>
   </energy>
  </scstep>
  <scstep>
   <time name="diag">    0.07    0.07</time>
   <time name="diis">    0.25    0.25</time>
   <time name="orth">    0.01    0.01</time>
   <time name="total">    0.40    0.42</time>
   <energy>
    <i name="e_fr_energy">    -73.48931467</i>
    <i name="e_wo_entrp">    -73.48931467</i>
    <i name="e_0_energy">    -73.48931467</i>
   </energy>
  </scstep>
  <scstep>
   <time name="diag">    0.07    0.07</time>
   <time name="diis">    0.24    0.24</time>
   <time name="orth">    0.01    0.01</time>
   <time name="total">    0.39    0.40</time>
   <energy>
    <i name="e_fr_energy">    -73.48861583</i>
    <i name="e_wo_entrp">    -73.48861583</i>
    <i name="e_0_energy">    -73.48861583</i>
   </energy>
  </scstep>
  <scstep>
   <time name="diag">    0.07    0.07</time>
   <time name="diis">    0.16    0.16</time>
   <time name="orth">    0.01    0.01</time>
   <time name="total">    0.27    0.29</time>
   <energy>
    <i name="alphaZ">     41.05392290</i>
    <i name="ewald">   -768.46367260</i>
    <i name="hartreedc">   -480.38146062</i>
    <i name="XCdc">    115.26287662</i>
    <i name="pawpsdc">    206.50752245</i>
    <i name="pawaedc">   -217.40056361</i>
    <i name="eentropy">      0.00000000</i>
    <i name="bandstr">   -147.28001947</i>
    <i name="atom">   1177.21277265</i>
    <i name="e_fr_energy">    -73.48862169</i>
    <i name="e_wo_entrp">    -73.48862169</i>
    <i name="e_0_energy">    -73.48862169</i>
   </energy>
  </scstep>
  <structure>
   <crystal>
    <varray name="basis" >
     <v>       2.45524277      -0.00000803       0.00001633 </v>
     <v>      -0.00001421       4.27889763       0.00008651 </v>
     <v>       0.00004256       0.00013145       7.54009624 </v>
    </varray>
    <i name="volume">     79.21423363</i>
    <varray name="rec_basis" >
     <v>       0.40729170       0.00000135      -0.00000230 </v>
     <v>       0.00000076       0.23370505      -0.00000407 </v>
     <v>      -0.00000088      -0.00000268       0.13262430 </v>
    </varray>
   </crystal>
   <varray name="positions" >
    <v>       0.00044673      -0.00141128       0.50000170 </v>
    <v>       0.00043830       0.00141117      -0.00000200 </v>
    <v>       0.50038000       0.16515375       0.49999813 </v>
    <v>       0.50035565       0.49857295       0.50000268 </v>
    <v>       0.50030957       0.50144434      -0.00000038 </v>
    <v>       0.00037068       0.33485169       0.00000198 </v>
    <v>       0.50037179       0.83483352      -0.00000391 </v>
    <v>       0.00038573       0.66514386       0.50000180 </v>
   </varray>
  </structure>
  <varray name="forces" >
   <v>      -0.00739050       0.02197265      -0.00021639 </v>
   <v>      -0.00713684      -0.02332497      -0.00009854 </v>
   <v>       0.00709860      -0.06065440       0.00035676 </v>
   <v>       0.00256201       0.02727362      -0.00014998 </v>
   <v>       0.00614548      -0.03231924       0.00005311 </v>
   <v>      -0.00543443       0.05990733      -0.00019887 </v>
   <v>       0.00544640       0.06498139       0.00005894 </v>
   <v>      -0.00129072      -0.05783638       0.00019497 </v>
  </varray>
  <varray name="stress" >
   <v>       1.01587088       0.05616762       0.00107950 </v>
   <v>       0.05616452      -7.39132807       0.00141674 </v>
   <v>       0.00107818       0.00141314       4.67923792 </v>
  </varray>
  <energy>
   <i name="e_fr_energy">    -73.48862169</i>
   <i name="e_wo_entrp">    -73.48862169</i>
   <i name="e_0_energy">      0.00000000</i>
  </energy>
  <eigenvalues>
   <array>
    <dimension dim="1">band</dimension>
    <dimension dim="2">kpoint</dimension>
    <dimension dim="3">spin</dimension>
    <field>eigene</field>
    <field>occ</field>
    <set>
     <set comment="spin 1">
      <set comment="kpoint 1">
       <r> -14.6834  1.0000</r>
       <r> -14.5721  1.0000</r>
       <r> -11.8029  1.0000</r>
       <r> -11.7138  1.0000</r>
       <r>  -6.2157  1.0000</r>
       <r>  -6.1633  1.0000</r>
       <r>  -3.1484  1.0000</r>
       <r>  -2.1252  1.0000</r>
       <r>  -1.4519  1.0000</r>
       <r>  -1.4358  1.0000</r>
       <r>   0.1071  1.0000</r>
       <r>   0.1222  1.0000</r>
       <r>   0.1971  1.0000</r>
       <r>   0.8361  1.0000</r>
       <r>   0.8461  1.0000</r>
       <r>   1.0070  1.0000</r>
       <r>   8.1007  0.0000</r>
       <r>   8.5329  0.0000</r>
       <r>   8.6081  0.0000</r>
       <r>  12.0879  0.0000</r>
       <r>  12.2491  0.0000</r>
       <r>  12.5314  0.0000</r>
       <r>  12.9915  0.0000</r>
       <r>  14.5641  0.0000</r>
      </set>
      <set comment="kpoint 2">
       <r> -12.7209  1.0000</r>
       <r> -12.6247  1.0000</r>
       <r>  -9.9752  1.0000</r>
       <r>  -9.9019  1.0000</r>
       <r>  -7.1509  1.0000</r>
       <r>  -7.1015  1.0000</r>
       <r>  -4.5389  1.0000</r>
       <r>  -4.4971  1.0000</r>
       <r>  -4.3774  1.0000</r>
       <r>  -4.3438  1.0000</r>
       <r>  -1.2267  1.0000</r>
       <r>  -1.2100  1.0000</r>
       <r>  -0.8212  1.0000</r>
       <r>   0.0818  1.0000</r>
       <r>   2.2175  1.0000</r>
       <r>   2.8291  1.0000</r>
       <r>   6.3281  0.0000</r>
       <r>   6.6434  0.0000</r>
       <r>   9.8489  0.0000</r>
       <r>  10.2423  0.0000</r>
       <r>  11.0434  0.0000</r>
       <r>  12.4246  0.0000</r>
       <r>  12.5808  0.0000</r>
       <r>  14.7298  0.0000</r>
      </set>
      <set comment="kpoint 3">
       <r> -12.7209  1.0000</r>
       <r> -12.6247  1.0000</r>
       <r>  -9.9751  1.0000</r>
       <r>  -9.9018  1.0000</r>
       <r>  -7.1511  1.0000</r>
       <r>  -7.1017  1.0000</r>
       <r>  -4.5388  1.0000</r>
       <r>  -4.4970  1.0000</r>
       <r>  -4.3772  1.0000</r>
       <r>  -4.3437  1.0000</r>
       <r>  -1.2268  1.0000</r>
       <r>  -1.2102  1.0000</r>
       <r>  -0.8213  1.0000</r>
       <r>   0.0817  1.0000</r>
       <r>   2.2177  1.0000</r>
       <r>   2.8294  1.0000</r>
       <r>   6.3277  0.0000</r>
       <r>   6.6431  0.0000</r>
       <r>   9.8490  0.0000</r>
       <r>  10.2424  0.0000</r>
       <r>  11.0434  0.0000</r>
       <r>  12.4247  0.0000</r>
       <r>  12.5809  0.0000</r>
       <r>  14.6845  0.0000</r>
      </set>
     </set>
    </set>
   </array>
  </eigenvalues>
 </calculation>
 <structure name="finalpos" >
  <crystal>
   <varray name="basis" >
    <v>       2.45524277      -0.00000803       0.00001633 </v>
    <v>      -0.00001421       4.27889763       0.00008651 </v>
    <v>       0.00004256       0.00013145       7.54009624 </v>
   </varray>
   <i name="volume">     79.21423363</i>
   <varray name="rec_basis" >
    <v>       0.40729170       0.00000135      -0.00000230 </v>
    <v>       0.00000076       0.23370505      -0.00000407 </v>
    <v>      -0.00000088      -0.00000268       0.13262430 </v>
   </varray>
  </crystal>
  <varray name="positions" >
   <v>       0.00044673      -0.00141128       0.50000170 </v>
   <v>       0.00043830       0.00141117      -0.00000200 </v>
   <v>       0.50038000       0.16515375       0.49999813 </v>
   <v>       0.50035565       0.49857295       0.50000268 </v>
   <v>       0.50030957       0.50144434      -0.00000038 </v>
   <v>       0.00037068       0.33485169       0.00000198 </v>
   <v>       0.50037179       0.83483352      -0.00000391 </v>
   <v>       0.00038573       0.66514386       0.50000180 </v>
  </varray>
 </structure>
</modeling>
