<?xml version="1.0" encoding="ISO-8859-1"?>
<modeling>
 <generator>
  <i name="program" type="string">vasp</i>
  <i name="version" type="string">4.6.36 </i>
  <i name="subversion" type="string">17Feb09 complex  parallel</i>
  <i name="platform" type="string">LinuxPgi</i>
  <i name="date" type="string">2013 05 21</i>
  <i name="time" type="string">17:27:05</i>
 </generator>
 <incar>
  <i type="string" name="SYSTEM"> H2O</i>
  <i type="int" name="ISTART">     0</i>
  <i type="string" name="PREC">low</i>
  <i type="int" name="IALGO">    48</i>
  <i type="int" name="MAXMIX">    50</i>
  <i name="BMIX">      2.00000000</i>
  <i type="int" name="ICHARG">     2</i>
  <i type="int" name="NELMIN">     4</i>
  <i type="int" name="IBRION">     2</i>
  <i type="int" name="NSW">  2000</i>
  <i type="int" name="ISIF">     3</i>
  <i type="int" name="ISYM">     0</i>
  <i type="int" name="NBLOCK">     1</i>
  <i type="int" name="KBLOCK">   100</i>
  <i name="POTIM">      0.19350400</i>
  <i name="TEBEG">    330.00000000</i>
  <i name="SMASS">      0.50000000</i>
  <i type="string" name="LREAL"> A</i>
  <i type="int" name="ISMEAR">    -1</i>
  <i name="SIGMA">      0.02843723</i>
  <i type="int" name="NWRITE">     3</i>
 </incar>
 <kpoints>
  <generation param="Monkhorst-Pack">
   <v type="int" name="divisions">       1       1       1</v>
   <v name="usershift">      0.00000000       0.00000000       0.00000000 </v>
   <v name="genvec1">      1.00000000       0.00000000       0.00000000 </v>
   <v name="genvec2">      0.00000000       1.00000000       0.00000000 </v>
   <v name="genvec3">      0.00000000       0.00000000       1.00000000 </v>
   <v name="shift">      0.00000000       0.00000000       0.00000000 </v>
  </generation>
  <varray name="kpointlist" >
   <v>       0.00000000       0.00000000       0.00000000 </v>
  </varray>
  <varray name="weights" >
   <v>       1.00000000 </v>
  </varray>
 </kpoints>
 <parameters>
  <separator name="general" >
   <i type="string" name="SYSTEM">H2O</i>
   <i type="logical" name="LCOMPAT"> F  </i>
  </separator>
  <separator name="electronic" >
   <i type="string" name="PREC">low</i>
   <i name="ENMAX">    500.00000000</i>
   <i name="ENAUG">    946.76800000</i>
   <i name="EDIFF">      0.00010000</i>
   <i type="int" name="IALGO">    48</i>
   <i type="int" name="IWAVPR">    11</i>
   <i type="int" name="NBANDS">   241</i>
   <i name="NELECT">    384.00000000</i>
   <separator name="electronic smearing" >
    <i type="int" name="ISMEAR">    -1</i>
    <i name="SIGMA">      0.02843723</i>
   </separator>
   <separator name="electronic projectors" >
    <i type="logical" name="LREAL"> T  </i>
    <v name="ROPT">     -0.01000000</v>
    <i type="int" name="LMAXPAW">  -100</i>
    <i type="int" name="LMAXMIX">     2</i>
   </separator>
   <separator name="electronic startup" >
    <i type="int" name="ISTART">     0</i>
    <i type="int" name="ICHARG">     2</i>
    <i type="int" name="INIWAV">     1</i>
   </separator>
   <separator name="electronic spin" >
    <i type="int" name="ISPIN">     1</i>
    <i type="logical" name="LNONCOLLINEAR"> F  </i>
    <v name="MAGMOM">      1.00000000      1.00000000      1.00000000      1.00000000      1.00000000      1.00000000      1.00000000      1.00000000      1.00000000      1.00000000      1.00000000      1.00000000      1.00000000      1.00000000      1.00000000      1.00000000      1.00000000      1.00000000      1.00000000      1.00000000
      1.00000000      1.00000000      1.00000000      1.00000000      1.00000000      1.00000000      1.00000000      1.00000000      1.00000000      1.00000000      1.00000000      1.00000000      1.00000000      1.00000000      1.00000000      1.00000000      1.00000000      1.00000000      1.00000000      1.00000000
      1.00000000      1.00000000      1.00000000      1.00000000      1.00000000      1.00000000      1.00000000      1.00000000      1.00000000      1.00000000      1.00000000      1.00000000      1.00000000      1.00000000      1.00000000      1.00000000      1.00000000      1.00000000      1.00000000      1.00000000
      1.00000000      1.00000000      1.00000000      1.00000000      1.00000000      1.00000000      1.00000000      1.00000000      1.00000000      1.00000000      1.00000000      1.00000000      1.00000000      1.00000000      1.00000000      1.00000000      1.00000000      1.00000000      1.00000000      1.00000000
      1.00000000      1.00000000      1.00000000      1.00000000      1.00000000      1.00000000      1.00000000      1.00000000      1.00000000      1.00000000      1.00000000      1.00000000      1.00000000      1.00000000      1.00000000      1.00000000</v>
    <i name="NUPDOWN">     -1.00000000</i>
    <i type="logical" name="LSORBIT"> F  </i>
    <v name="SAXIS">      0.00000000      0.00000000      1.00000000</v>
    <i type="logical" name="LSPIRAL"> F  </i>
    <v name="QSPIRAL">      0.00000000      0.00000000      0.00000000</v>
    <i type="logical" name="LZEROZ"> F  </i>
   </separator>
   <separator name="electronic exchange-correlation" >
    <i type="string" name="GGA">--</i>
    <i type="int" name="VOSKOWN">     0</i>
    <i type="logical" name="LASPH"> F  </i>
    <i type="logical" name="LMETAGGA"> F  </i>
    <i type="string" name="GGA2">--</i>
   </separator>
   <separator name="electronic convergence" >
    <i type="int" name="NELM">    60</i>
    <i type="int" name="NELMDL">   -12</i>
    <i type="int" name="NELMIN">     4</i>
    <i name="ENINI">    500.00000000</i>
    <separator name="electronic convergence detail" >
     <i type="logical" name="LDIAG"> T  </i>
     <i name="WEIMIN">      0.00100000</i>
     <i name="EBREAK">      0.00000010</i>
     <i name="DEPER">      0.30000000</i>
     <i type="int" name="NRMM">     4</i>
     <i name="TIME">      0.10000000</i>
    </separator>
   </separator>
   <separator name="electronic mixer" >
    <i name="AMIX">      0.40000000</i>
    <i name="BMIX">      2.00000000</i>
    <i name="AMIN">      0.10000000</i>
    <i name="AMIX_MAG">      1.60000000</i>
    <i name="BMIX_MAG">      2.00000000</i>
    <separator name="electronic mixer details" >
     <i type="int" name="IMIX">     4</i>
     <i type="int" name="MAXMIX">    50</i>
     <i name="WC">    100.00000000</i>
     <i type="int" name="INIMIX">     1</i>
     <i type="int" name="MIXPRE">     1</i>
     <i type="int" name="MREMOVE">     5</i>
    </separator>
   </separator>
   <separator name="electronic dipolcorrection" >
    <i type="int" name="IDIPOL">     0</i>
    <i type="logical" name="LDIPOL"> F  </i>
    <v name="DIPOL">   -100.00000000</v>
    <i name="EFIELD">      0.00000000</i>
   </separator>
  </separator>
  <separator name="grids" >
   <i type="int" name="NGX">    40</i>
   <i type="int" name="NGY">    48</i>
   <i type="int" name="NGZ">    80</i>
   <i type="int" name="NGXF">    56</i>
   <i type="int" name="NGYF">    64</i>
   <i type="int" name="NGZF">   100</i>
   <i type="logical" name="ADDGRID"> F  </i>
  </separator>
  <separator name="ionic" >
   <i type="int" name="NSW">  2000</i>
   <i type="int" name="IBRION">     2</i>
   <i type="int" name="ISIF">     3</i>
   <i name="PSTRESS">      0.00000000</i>
   <i name="EDIFFG">      0.00100000</i>
   <i type="int" name="NFREE">     1</i>
   <i name="POTIM">      0.19350400</i>
   <i name="SMASS">      0.50000000</i>
  </separator>
  <separator name="ionic md" >
   <i name="TEBEG">    330.00000000</i>
   <i name="TEEND">    330.00000000</i>
   <i type="int" name="NBLOCK">     1</i>
   <i type="int" name="KBLOCK">   100</i>
   <i type="int" name="NPACO">   256</i>
   <i name="APACO">     16.00000000</i>
  </separator>
  <separator name="symmetry" >
   <i type="int" name="ISYM">     0</i>
   <i name="SYMPREC">      0.00001000</i>
  </separator>
  <separator name="dos" >
   <i type="logical" name="LORBIT"> T  </i>
   <v name="RWIGS">     -1.00000000</v>
   <i type="int" name="NEDOS">   301</i>
   <i name="EMIN">     10.00000000</i>
   <i name="EMAX">    -10.00000000</i>
  </separator>
  <separator name="writing" >
   <i type="int" name="NWRITE">     3</i>
   <i type="logical" name="LWAVE"> T  </i>
   <i type="logical" name="LCHARG"> T  </i>
   <i type="logical" name="LPARD"> F  </i>
   <i type="logical" name="LVTOT"> F  </i>
   <i type="logical" name="LELF"> F  </i>
   <i type="logical" name="LOPTICS"> F  </i>
   <v name="STM">      0.00000000      0.00000000      0.00000000      0.00000000      0.00000000</v>
  </separator>
  <separator name="performance" >
   <i type="int" name="NPAR">    20</i>
   <i type="int" name="NSIM">     4</i>
   <i type="int" name="NBLK">   256</i>
   <i type="logical" name="LPLANE"> T  </i>
   <i type="logical" name="LCRITICAL_MEM"> F  </i>
   <i type="logical" name="LSCALAPACK"> F  </i>
   <i type="logical" name="LSCALU"> F  </i>
   <i type="logical" name="LASYNC"> F  </i>
  </separator>
  <separator name="miscellaneous" >
   <i type="int" name="IDIOT">     3</i>
   <i type="logical" name="LMUSIC"> F  </i>
   <v name="POMASS">     12.01100000</v>
   <i type="logical" name="LCORR"> T  </i>
  </separator>
  <i type="logical" name="LREAL_COMPAT"> F  </i>
  <i type="logical" name="GGA_COMPAT"> T  </i>
  <i type="logical" name="LBERRY"> F  </i>
  <i type="int" name="ICORELEVEL">     0</i>
  <i type="logical" name="LDAU"> F  </i>
  <i type="int" name="I_CONSTRAINED_M">     0</i>
 </parameters>
 <atominfo>
  <atoms>      96</atoms>
  <types>       1</types>
  <array name="atoms" >
   <dimension dim="1">ion</dimension>
   <field type="string">element</field>
   <field type="int">atomtype</field>
   <set>
    <rc><c>C </c><c>   1</c></rc>
    <rc><c>C </c><c>   1</c></rc>
    <rc><c>C </c><c>   1</c></rc>
    <rc><c>C </c><c>   1</c></rc>
    <rc><c>C </c><c>   1</c></rc>
    <rc><c>C </c><c>   1</c></rc>
    <rc><c>C </c><c>   1</c></rc>
    <rc><c>C </c><c>   1</c></rc>
    <rc><c>C </c><c>   1</c></rc>
    <rc><c>C </c><c>   1</c></rc>
    <rc><c>C </c><c>   1</c></rc>
    <rc><c>C </c><c>   1</c></rc>
    <rc><c>C </c><c>   1</c></rc>
    <rc><c>C </c><c>   1</c></rc>
    <rc><c>C </c><c>   1</c></rc>
    <rc><c>C </c><c>   1</c></rc>
    <rc><c>C </c><c>   1</c></rc>
    <rc><c>C </c><c>   1</c></rc>
    <rc><c>C </c><c>   1</c></rc>
    <rc><c>C </c><c>   1</c></rc>
    <rc><c>C </c><c>   1</c></rc>
    <rc><c>C </c><c>   1</c></rc>
    <rc><c>C </c><c>   1</c></rc>
    <rc><c>C </c><c>   1</c></rc>
    <rc><c>C </c><c>   1</c></rc>
    <rc><c>C </c><c>   1</c></rc>
    <rc><c>C </c><c>   1</c></rc>
    <rc><c>C </c><c>   1</c></rc>
    <rc><c>C </c><c>   1</c></rc>
    <rc><c>C </c><c>   1</c></rc>
    <rc><c>C </c><c>   1</c></rc>
    <rc><c>C </c><c>   1</c></rc>
    <rc><c>C </c><c>   1</c></rc>
    <rc><c>C </c><c>   1</c></rc>
    <rc><c>C </c><c>   1</c></rc>
    <rc><c>C </c><c>   1</c></rc>
    <rc><c>C </c><c>   1</c></rc>
    <rc><c>C </c><c>   1</c></rc>
    <rc><c>C </c><c>   1</c></rc>
    <rc><c>C </c><c>   1</c></rc>
    <rc><c>C </c><c>   1</c></rc>
    <rc><c>C </c><c>   1</c></rc>
    <rc><c>C </c><c>   1</c></rc>
    <rc><c>C </c><c>   1</c></rc>
    <rc><c>C </c><c>   1</c></rc>
    <rc><c>C </c><c>   1</c></rc>
    <rc><c>C </c><c>   1</c></rc>
    <rc><c>C </c><c>   1</c></rc>
    <rc><c>C </c><c>   1</c></rc>
    <rc><c>C </c><c>   1</c></rc>
    <rc><c>C </c><c>   1</c></rc>
    <rc><c>C </c><c>   1</c></rc>
    <rc><c>C </c><c>   1</c></rc>
    <rc><c>C </c><c>   1</c></rc>
    <rc><c>C </c><c>   1</c></rc>
    <rc><c>C </c><c>   1</c></rc>
    <rc><c>C </c><c>   1</c></rc>
    <rc><c>C </c><c>   1</c></rc>
    <rc><c>C </c><c>   1</c></rc>
    <rc><c>C </c><c>   1</c></rc>
    <rc><c>C </c><c>   1</c></rc>
    <rc><c>C </c><c>   1</c></rc>
    <rc><c>C </c><c>   1</c></rc>
    <rc><c>C </c><c>   1</c></rc>
    <rc><c>C </c><c>   1</c></rc>
    <rc><c>C </c><c>   1</c></rc>
    <rc><c>C </c><c>   1</c></rc>
    <rc><c>C </c><c>   1</c></rc>
    <rc><c>C </c><c>   1</c></rc>
    <rc><c>C </c><c>   1</c></rc>
    <rc><c>C </c><c>   1</c></rc>
    <rc><c>C </c><c>   1</c></rc>
    <rc><c>C </c><c>   1</c></rc>
    <rc><c>C </c><c>   1</c></rc>
    <rc><c>C </c><c>   1</c></rc>
    <rc><c>C </c><c>   1</c></rc>
    <rc><c>C </c><c>   1</c></rc>
    <rc><c>C </c><c>   1</c></rc>
    <rc><c>C </c><c>   1</c></rc>
    <rc><c>C </c><c>   1</c></rc>
    <rc><c>C </c><c>   1</c></rc>
    <rc><c>C </c><c>   1</c></rc>
    <rc><c>C </c><c>   1</c></rc>
    <rc><c>C </c><c>   1</c></rc>
    <rc><c>C </c><c>   1</c></rc>
    <rc><c>C </c><c>   1</c></rc>
    <rc><c>C </c><c>   1</c></rc>
    <rc><c>C </c><c>   1</c></rc>
    <rc><c>C </c><c>   1</c></rc>
    <rc><c>C </c><c>   1</c></rc>
    <rc><c>C </c><c>   1</c></rc>
    <rc><c>C </c><c>   1</c></rc>
    <rc><c>C </c><c>   1</c></rc>
    <rc><c>C </c><c>   1</c></rc>
    <rc><c>C </c><c>   1</c></rc>
    <rc><c>C </c><c>   1</c></rc>
   </set>
  </array>
  <array name="atomtypes" >
   <dimension dim="1">type</dimension>
   <field type="int">atomspertype</field>
   <field type="string">element</field>
   <field>mass</field>
   <field>valence</field>
   <field type="string">pseudopotential</field>
   <set>
    <rc><c>  96</c><c>C </c><c>     12.01100000</c><c>      4.00000000</c><c> PAW_PBE C_h 20Dec2001                  </c></rc>
   </set>
  </array>
 </atominfo>
 <structure name="initialpos" >
  <crystal>
   <varray name="basis" >
    <v>       7.37627000       0.00000000       0.00000000 </v>
    <v>       0.00000000       8.52000000       0.00000000 </v>
    <v>       0.00000000       0.00000000      13.40000000 </v>
   </varray>
   <i name="volume">    842.13399336</i>
   <varray name="rec_basis" >
    <v>       0.13556987       0.00000000       0.00000000 </v>
    <v>       0.00000000       0.11737089       0.00000000 </v>
    <v>       0.00000000       0.00000000       0.07462687 </v>
   </varray>
  </crystal>
  <varray name="positions" >
   <v>       0.33343546       0.50000000       0.25000000 </v>
   <v>       0.33343546       0.50000000       0.50000000 </v>
   <v>       0.50015387       0.58333333       0.25000000 </v>
   <v>       0.50015387       0.75000000       0.25000000 </v>
   <v>       0.50015387       0.75000000       0.50000000 </v>
   <v>       0.33343546       0.66666667       0.50000000 </v>
   <v>       0.50015387       0.91666667       0.50000000 </v>
   <v>       0.33343546       0.83333333       0.25000000 </v>
   <v>       0.33343546       0.00000000       0.25000000 </v>
   <v>       0.33343546       0.00000000       0.50000000 </v>
   <v>       0.50015387       0.08333333       0.25000000 </v>
   <v>       0.50015387       0.25000000       0.25000000 </v>
   <v>       0.50015387       0.25000000       0.50000000 </v>
   <v>       0.33343546       0.16666667       0.50000000 </v>
   <v>       0.50015387       0.41666667       0.50000000 </v>
   <v>       0.33343546       0.33333333       0.25000000 </v>
   <v>       0.66687093       0.50000000       0.25000000 </v>
   <v>       0.66687093       0.50000000       0.50000000 </v>
   <v>       0.83358933       0.58333333       0.25000000 </v>
   <v>       0.83358933       0.75000000       0.25000000 </v>
   <v>       0.83358933       0.75000000       0.50000000 </v>
   <v>       0.66687093       0.66666667       0.50000000 </v>
   <v>       0.83358933       0.91666667       0.50000000 </v>
   <v>       0.66687093       0.83333333       0.25000000 </v>
   <v>       0.66687093       0.00000000       0.25000000 </v>
   <v>       0.66687093       0.00000000       0.50000000 </v>
   <v>       0.83358933       0.08333333       0.25000000 </v>
   <v>       0.83358933       0.25000000       0.25000000 </v>
   <v>       0.83358933       0.25000000       0.50000000 </v>
   <v>       0.66687093       0.16666667       0.50000000 </v>
   <v>       0.83358933       0.41666667       0.50000000 </v>
   <v>       0.66687093       0.33333333       0.25000000 </v>
   <v>       0.00030774       0.50000000       0.25000000 </v>
   <v>       0.00030774       0.50000000       0.50000000 </v>
   <v>       0.16702480       0.58333333       0.25000000 </v>
   <v>       0.16702480       0.75000000       0.25000000 </v>
   <v>       0.16702480       0.75000000       0.50000000 </v>
   <v>       0.00030774       0.66666667       0.50000000 </v>
   <v>       0.16702480       0.91666667       0.50000000 </v>
   <v>       0.00030774       0.83333333       0.25000000 </v>
   <v>       0.00030774       0.00000000       0.25000000 </v>
   <v>       0.00030774       0.00000000       0.50000000 </v>
   <v>       0.16702480       0.08333333       0.25000000 </v>
   <v>       0.16702480       0.25000000       0.25000000 </v>
   <v>       0.16702480       0.25000000       0.50000000 </v>
   <v>       0.00030774       0.16666667       0.50000000 </v>
   <v>       0.16702480       0.41666667       0.50000000 </v>
   <v>       0.00030774       0.33333333       0.25000000 </v>
   <v>       0.33343546       0.50000000       0.75000000 </v>
   <v>       0.33343546       0.50000000       0.00000000 </v>
   <v>       0.50015387       0.58333333       0.75000000 </v>
   <v>       0.50015387       0.75000000       0.75000000 </v>
   <v>       0.50015387       0.75000000       0.00000000 </v>
   <v>       0.33343546       0.66666667       0.00000000 </v>
   <v>       0.50015387       0.91666667       0.00000000 </v>
   <v>       0.33343546       0.83333333       0.75000000 </v>
   <v>       0.33343546       0.00000000       0.75000000 </v>
   <v>       0.33343546       0.00000000       0.00000000 </v>
   <v>       0.50015387       0.08333333       0.75000000 </v>
   <v>       0.50015387       0.25000000       0.75000000 </v>
   <v>       0.50015387       0.25000000       0.00000000 </v>
   <v>       0.33343546       0.16666667       0.00000000 </v>
   <v>       0.50015387       0.41666667       0.00000000 </v>
   <v>       0.33343546       0.33333333       0.75000000 </v>
   <v>       0.66687093       0.50000000       0.75000000 </v>
   <v>       0.66687093       0.50000000       0.00000000 </v>
   <v>       0.83358933       0.58333333       0.75000000 </v>
   <v>       0.83358933       0.75000000       0.75000000 </v>
   <v>       0.83358933       0.75000000       0.00000000 </v>
   <v>       0.66687093       0.66666667       0.00000000 </v>
   <v>       0.83358933       0.91666667       0.00000000 </v>
   <v>       0.66687093       0.83333333       0.75000000 </v>
   <v>       0.66687093       0.00000000       0.75000000 </v>
   <v>       0.66687093       0.00000000       0.00000000 </v>
   <v>       0.83358933       0.08333333       0.75000000 </v>
   <v>       0.83358933       0.25000000       0.75000000 </v>
   <v>       0.83358933       0.25000000       0.00000000 </v>
   <v>       0.66687093       0.16666667       0.00000000 </v>
   <v>       0.83358933       0.41666667       0.00000000 </v>
   <v>       0.66687093       0.33333333       0.75000000 </v>
   <v>       0.00030774       0.50000000       0.75000000 </v>
   <v>       0.00030774       0.50000000       0.00000000 </v>
   <v>       0.16702480       0.58333333       0.75000000 </v>
   <v>       0.16702480       0.75000000       0.75000000 </v>
   <v>       0.16702480       0.75000000       0.00000000 </v>
   <v>       0.00030774       0.66666667       0.00000000 </v>
   <v>       0.16702480       0.91666667       0.00000000 </v>
   <v>       0.00030774       0.83333333       0.75000000 </v>
   <v>       0.00030774       0.00000000       0.75000000 </v>
   <v>       0.00030774       0.00000000       0.00000000 </v>
   <v>       0.16702480       0.08333333       0.75000000 </v>
   <v>       0.16702480       0.25000000       0.75000000 </v>
   <v>       0.16702480       0.25000000       0.00000000 </v>
   <v>       0.00030774       0.16666667       0.00000000 </v>
   <v>       0.16702480       0.41666667       0.00000000 </v>
   <v>       0.00030774       0.33333333       0.75000000 </v>
  </varray>
 </structure>
 <calculation>
  <scstep>
   <time name="diag">    1.33    1.33</time>
   <time name="diis">    1.71    1.71</time>
   <time name="orth">    0.35    0.35</time>
   <time name="total">    3.51    3.51</time>
   <energy>
    <i name="alphaZ">    556.08243991</i>
    <i name="ewald"> -11068.71209410</i>
    <i name="hartreedc">  -3555.50774102</i>
    <i name="XCdc">   1330.97125479</i>
    <i name="pawpsdc">   1487.47188029</i>
    <i name="pawaedc">  -1604.80332382</i>
    <i name="eentropy">     -0.00072032</i>
    <i name="bandstr">   3159.87767260</i>
    <i name="atom">  14102.14777378</i>
    <i name="e_fr_energy">   4407.52714213</i>
    <i name="e_wo_entrp">   4407.52786245</i>
    <i name="e_0_energy">   4407.52750229</i>
   </energy>
  </scstep>
  <scstep>
   <time name="diag">    1.19    1.19</time>
   <time name="diis">    1.69    1.69</time>
   <time name="orth">    0.35    0.35</time>
   <time name="total">    3.24    3.30</time>
   <energy>
    <i name="e_fr_energy">    942.68392238</i>
    <i name="e_wo_entrp">    942.70426200</i>
    <i name="e_0_energy">    942.69409219</i>
   </energy>
  </scstep>
  <scstep>
   <time name="diag">    1.19    1.19</time>
   <time name="diis">    1.69    1.69</time>
   <time name="orth">    0.35    0.35</time>
   <time name="total">    3.25    3.33</time>
   <energy>
    <i name="e_fr_energy">   -200.93174292</i>
    <i name="e_wo_entrp">   -200.83960278</i>
    <i name="e_0_energy">   -200.88567285</i>
   </energy>
  </scstep>
  <scstep>
   <time name="diag">    1.20    1.20</time>
   <time name="diis">    1.70    1.70</time>
   <time name="orth">    0.35    0.35</time>
   <time name="total">    3.25    3.32</time>
   <energy>
    <i name="e_fr_energy">   -650.53313666</i>
    <i name="e_wo_entrp">   -650.45787421</i>
    <i name="e_0_energy">   -650.49550543</i>
   </energy>
  </scstep>
  <scstep>
   <time name="diag">    1.19    1.19</time>
   <time name="diis">    1.70    1.70</time>
   <time name="orth">    0.35    0.35</time>
   <time name="total">    3.25    3.34</time>
   <energy>
    <i name="e_fr_energy">   -802.96677654</i>
    <i name="e_wo_entrp">   -802.92876235</i>
    <i name="e_0_energy">   -802.94776945</i>
   </energy>
  </scstep>
  <scstep>
   <time name="diag">    1.19    1.19</time>
   <time name="diis">    1.70    1.70</time>
   <time name="orth">    0.35    0.35</time>
   <time name="total">    3.25    3.33</time>
   <energy>
    <i name="e_fr_energy">   -863.02380018</i>
    <i name="e_wo_entrp">   -862.90807838</i>
    <i name="e_0_energy">   -862.96593928</i>
   </energy>
  </scstep>
  <scstep>
   <time name="diag">    1.19    1.19</time>
   <time name="diis">    1.69    1.69</time>
   <time name="orth">    0.37    0.37</time>
   <time name="total">    3.26    3.33</time>
   <energy>
    <i name="e_fr_energy">   -885.68198549</i>
    <i name="e_wo_entrp">   -885.50748338</i>
    <i name="e_0_energy">   -885.59473443</i>
   </energy>
  </scstep>
  <scstep>
   <time name="diag">    1.26    1.26</time>
   <time name="diis">    1.91    1.91</time>
   <time name="orth">    0.36    0.36</time>
   <time name="total">    3.53    3.54</time>
   <energy>
    <i name="e_fr_energy">   -895.20994017</i>
    <i name="e_wo_entrp">   -894.95761189</i>
    <i name="e_0_energy">   -895.08377603</i>
   </energy>
  </scstep>
  <scstep>
   <time name="diag">    1.25    1.25</time>
   <time name="diis">    3.91    3.92</time>
   <time name="orth">    0.36    0.36</time>
   <time name="total">    5.53    5.54</time>
   <energy>
    <i name="e_fr_energy">   -902.33353473</i>
    <i name="e_wo_entrp">   -901.88230145</i>
    <i name="e_0_energy">   -902.10791809</i>
   </energy>
  </scstep>
  <scstep>
   <time name="diag">    1.26    1.26</time>
   <time name="diis">    4.29    4.29</time>
   <time name="orth">    0.36    0.36</time>
   <time name="total">    5.92    6.00</time>
   <energy>
    <i name="e_fr_energy">   -902.79112646</i>
    <i name="e_wo_entrp">   -902.34099280</i>
    <i name="e_0_energy">   -902.56605963</i>
   </energy>
  </scstep>
  <scstep>
   <time name="diag">    1.25    1.26</time>
   <time name="diis">    4.08    4.08</time>
   <time name="orth">    0.36    0.36</time>
   <time name="total">    5.70    5.72</time>
   <energy>
    <i name="e_fr_energy">   -902.82185499</i>
    <i name="e_wo_entrp">   -902.37319688</i>
    <i name="e_0_energy">   -902.59752594</i>
   </energy>
  </scstep>
  <scstep>
   <time name="diag">    1.25    1.25</time>
   <time name="diis">    3.17    3.17</time>
   <time name="orth">    0.36    0.36</time>
   <time name="total">    5.14    5.17</time>
   <energy>
    <i name="e_fr_energy">   -902.82294116</i>
    <i name="e_wo_entrp">   -902.37431494</i>
    <i name="e_0_energy">   -902.59862805</i>
   </energy>
  </scstep>
  <scstep>
   <time name="diag">    1.26    1.26</time>
   <time name="diis">    3.33    3.33</time>
   <time name="orth">    0.36    0.36</time>
   <time name="total">    5.37    5.39</time>
   <energy>
    <i name="e_fr_energy">   -871.42451630</i>
    <i name="e_wo_entrp">   -870.97973160</i>
    <i name="e_0_energy">   -871.20212395</i>
   </energy>
  </scstep>
  <scstep>
   <time name="diag">    1.26    1.26</time>
   <time name="diis">    3.34    3.34</time>
   <time name="orth">    0.36    0.36</time>
   <time name="total">    5.38    5.41</time>
   <energy>
    <i name="e_fr_energy">   -849.26389540</i>
    <i name="e_wo_entrp">   -848.88424572</i>
    <i name="e_0_energy">   -849.07407056</i>
   </energy>
  </scstep>
  <scstep>
   <time name="diag">    1.25    1.25</time>
   <time name="diis">    3.34    3.34</time>
   <time name="orth">    0.36    0.36</time>
   <time name="total">    5.38    5.40</time>
   <energy>
    <i name="e_fr_energy">   -849.41301251</i>
    <i name="e_wo_entrp">   -849.02794924</i>
    <i name="e_0_energy">   -849.22048087</i>
   </energy>
  </scstep>
  <scstep>
   <time name="diag">    1.25    1.25</time>
   <time name="diis">    3.40    3.40</time>
   <time name="orth">    0.36    0.36</time>
   <time name="total">    5.43    5.46</time>
   <energy>
    <i name="e_fr_energy">   -849.79653457</i>
    <i name="e_wo_entrp">   -849.50856324</i>
    <i name="e_0_energy">   -849.65254890</i>
   </energy>
  </scstep>
  <scstep>
   <time name="diag">    1.25    1.25</time>
   <time name="diis">    3.34    3.34</time>
   <time name="orth">    0.36    0.36</time>
   <time name="total">    5.37    5.40</time>
   <energy>
    <i name="e_fr_energy">   -850.16489869</i>
    <i name="e_wo_entrp">   -849.93959909</i>
    <i name="e_0_energy">   -850.05224889</i>
   </energy>
  </scstep>
  <scstep>
   <time name="diag">    1.25    1.26</time>
   <time name="diis">    3.34    3.34</time>
   <time name="orth">    0.36    0.36</time>
   <time name="total">    5.38    5.41</time>
   <energy>
    <i name="e_fr_energy">   -849.68849869</i>
    <i name="e_wo_entrp">   -849.28946565</i>
    <i name="e_0_energy">   -849.48898217</i>
   </energy>
  </scstep>
  <scstep>
   <time name="diag">    1.25    1.26</time>
   <time name="diis">    3.34    3.34</time>
   <time name="orth">    0.36    0.36</time>
   <time name="total">    5.38    5.41</time>
   <energy>
    <i name="e_fr_energy">   -849.68490609</i>
    <i name="e_wo_entrp">   -849.27290580</i>
    <i name="e_0_energy">   -849.47890594</i>
   </energy>
  </scstep>
  <scstep>
   <time name="diag">    1.26    1.26</time>
   <time name="diis">    3.34    3.34</time>
   <time name="orth">    0.36    0.36</time>
   <time name="total">    5.38    5.41</time>
   <energy>
    <i name="e_fr_energy">   -849.65934657</i>
    <i name="e_wo_entrp">   -849.22935271</i>
    <i name="e_0_energy">   -849.44434964</i>
   </energy>
  </scstep>
  <scstep>
   <time name="diag">    1.25    1.26</time>
   <time name="diis">    3.34    3.34</time>
   <time name="orth">    0.36    0.36</time>
   <time name="total">    5.38    5.42</time>
   <energy>
    <i name="e_fr_energy">   -849.66116527</i>
    <i name="e_wo_entrp">   -849.22676136</i>
    <i name="e_0_energy">   -849.44396332</i>
   </energy>
  </scstep>
  <scstep>
   <time name="diag">    1.26    1.26</time>
   <time name="diis">    3.34    3.34</time>
   <time name="orth">    0.36    0.36</time>
   <time name="total">    5.39    5.39</time>
   <energy>
    <i name="e_fr_energy">   -849.68164343</i>
    <i name="e_wo_entrp">   -849.24974817</i>
    <i name="e_0_energy">   -849.46569580</i>
   </energy>
  </scstep>
  <scstep>
   <time name="diag">    1.26    1.26</time>
   <time name="diis">    3.35    3.35</time>
   <time name="orth">    0.36    0.36</time>
   <time name="total">    5.39    5.41</time>
   <energy>
    <i name="e_fr_energy">   -849.68235584</i>
    <i name="e_wo_entrp">   -849.24797641</i>
    <i name="e_0_energy">   -849.46516613</i>
   </energy>
  </scstep>
  <scstep>
   <time name="diag">    1.26    1.26</time>
   <time name="diis">    2.65    2.65</time>
   <time name="orth">    0.36    0.36</time>
   <time name="total">    4.69    4.70</time>
   <energy>
    <i name="e_fr_energy">   -849.68319922</i>
    <i name="e_wo_entrp">   -849.24851859</i>
    <i name="e_0_energy">   -849.46585890</i>
   </energy>
  </scstep>
  <scstep>
   <time name="diag">    1.26    1.26</time>
   <time name="diis">    2.25    2.25</time>
   <time name="orth">    0.36    0.36</time>
   <time name="total">    4.29    4.30</time>
   <energy>
    <i name="e_fr_energy">   -849.68339246</i>
    <i name="e_wo_entrp">   -849.24869402</i>
    <i name="e_0_energy">   -849.46604324</i>
   </energy>
  </scstep>
  <scstep>
   <time name="diag">    1.26    1.26</time>
   <time name="diis">    2.24    2.24</time>
   <time name="orth">    0.36    0.36</time>
   <time name="total">    3.93    3.94</time>
   <energy>
    <i name="alphaZ">    556.08243991</i>
    <i name="ewald"> -11068.71209410</i>
    <i name="hartreedc">  -4380.34354383</i>
    <i name="XCdc">   1385.02834991</i>
    <i name="pawpsdc">   2638.30138960</i>
    <i name="pawaedc">  -2760.92856157</i>
    <i name="eentropy">     -0.43469630</i>
    <i name="bandstr">  -1320.82448901</i>
    <i name="atom">  14102.14777378</i>
    <i name="e_fr_energy">   -849.68343159</i>
    <i name="e_wo_entrp">   -849.24873530</i>
    <i name="e_0_energy">   -849.46608345</i>
   </energy>
  </scstep>
  <structure>
   <crystal>
    <varray name="basis" >
     <v>       7.37627000       0.00000000       0.00000000 </v>
     <v>       0.00000000       8.52000000       0.00000000 </v>
     <v>       0.00000000       0.00000000      13.40000000 </v>
    </varray>
    <i name="volume">    842.13399336</i>
    <varray name="rec_basis" >
     <v>       0.13556987       0.00000000       0.00000000 </v>
     <v>       0.00000000       0.11737089       0.00000000 </v>
     <v>       0.00000000       0.00000000       0.07462687 </v>
    </varray>
   </crystal>
   <varray name="positions" >
    <v>       0.33343546       0.50000000       0.25000000 </v>
    <v>       0.33343546       0.50000000       0.50000000 </v>
    <v>       0.50015387       0.58333333       0.25000000 </v>
    <v>       0.50015387       0.75000000       0.25000000 </v>
    <v>       0.50015387       0.75000000       0.50000000 </v>
    <v>       0.33343546       0.66666667       0.50000000 </v>
    <v>       0.50015387       0.91666667       0.50000000 </v>
    <v>       0.33343546       0.83333333       0.25000000 </v>
    <v>       0.33343546       0.00000000       0.25000000 </v>
    <v>       0.33343546       0.00000000       0.50000000 </v>
    <v>       0.50015387       0.08333333       0.25000000 </v>
    <v>       0.50015387       0.25000000       0.25000000 </v>
    <v>       0.50015387       0.25000000       0.50000000 </v>
    <v>       0.33343546       0.16666667       0.50000000 </v>
    <v>       0.50015387       0.41666667       0.50000000 </v>
    <v>       0.33343546       0.33333333       0.25000000 </v>
    <v>       0.66687093       0.50000000       0.25000000 </v>
    <v>       0.66687093       0.50000000       0.50000000 </v>
    <v>       0.83358933       0.58333333       0.25000000 </v>
    <v>       0.83358933       0.75000000       0.25000000 </v>
    <v>       0.83358933       0.75000000       0.50000000 </v>
    <v>       0.66687093       0.66666667       0.50000000 </v>
    <v>       0.83358933       0.91666667       0.50000000 </v>
    <v>       0.66687093       0.83333333       0.25000000 </v>
    <v>       0.66687093       0.00000000       0.25000000 </v>
    <v>       0.66687093       0.00000000       0.50000000 </v>
    <v>       0.83358933       0.08333333       0.25000000 </v>
    <v>       0.83358933       0.25000000       0.25000000 </v>
    <v>       0.83358933       0.25000000       0.50000000 </v>
    <v>       0.66687093       0.16666667       0.50000000 </v>
    <v>       0.83358933       0.41666667       0.50000000 </v>
    <v>       0.66687093       0.33333333       0.25000000 </v>
    <v>       0.00030774       0.50000000       0.25000000 </v>
    <v>       0.00030774       0.50000000       0.50000000 </v>
    <v>       0.16702480       0.58333333       0.25000000 </v>
    <v>       0.16702480       0.75000000       0.25000000 </v>
    <v>       0.16702480       0.75000000       0.50000000 </v>
    <v>       0.00030774       0.66666667       0.50000000 </v>
    <v>       0.16702480       0.91666667       0.50000000 </v>
    <v>       0.00030774       0.83333333       0.25000000 </v>
    <v>       0.00030774       0.00000000       0.25000000 </v>
    <v>       0.00030774       0.00000000       0.50000000 </v>
    <v>       0.16702480       0.08333333       0.25000000 </v>
    <v>       0.16702480       0.25000000       0.25000000 </v>
    <v>       0.16702480       0.25000000       0.50000000 </v>
    <v>       0.00030774       0.16666667       0.50000000 </v>
    <v>       0.16702480       0.41666667       0.50000000 </v>
    <v>       0.00030774       0.33333333       0.25000000 </v>
    <v>       0.33343546       0.50000000       0.75000000 </v>
    <v>       0.33343546       0.50000000       0.00000000 </v>
    <v>       0.50015387       0.58333333       0.75000000 </v>
    <v>       0.50015387       0.75000000       0.75000000 </v>
    <v>       0.50015387       0.75000000       0.00000000 </v>
    <v>       0.33343546       0.66666667       0.00000000 </v>
    <v>       0.50015387       0.91666667       0.00000000 </v>
    <v>       0.33343546       0.83333333       0.75000000 </v>
    <v>       0.33343546       0.00000000       0.75000000 </v>
    <v>       0.33343546       0.00000000       0.00000000 </v>
    <v>       0.50015387       0.08333333       0.75000000 </v>
    <v>       0.50015387       0.25000000       0.75000000 </v>
    <v>       0.50015387       0.25000000       0.00000000 </v>
    <v>       0.33343546       0.16666667       0.00000000 </v>
    <v>       0.50015387       0.41666667       0.00000000 </v>
    <v>       0.33343546       0.33333333       0.75000000 </v>
    <v>       0.66687093       0.50000000       0.75000000 </v>
    <v>       0.66687093       0.50000000       0.00000000 </v>
    <v>       0.83358933       0.58333333       0.75000000 </v>
    <v>       0.83358933       0.75000000       0.75000000 </v>
    <v>       0.83358933       0.75000000       0.00000000 </v>
    <v>       0.66687093       0.66666667       0.00000000 </v>
    <v>       0.83358933       0.91666667       0.00000000 </v>
    <v>       0.66687093       0.83333333       0.75000000 </v>
    <v>       0.66687093       0.00000000       0.75000000 </v>
    <v>       0.66687093       0.00000000       0.00000000 </v>
    <v>       0.83358933       0.08333333       0.75000000 </v>
    <v>       0.83358933       0.25000000       0.75000000 </v>
    <v>       0.83358933       0.25000000       0.00000000 </v>
    <v>       0.66687093       0.16666667       0.00000000 </v>
    <v>       0.83358933       0.41666667       0.00000000 </v>
    <v>       0.66687093       0.33333333       0.75000000 </v>
    <v>       0.00030774       0.50000000       0.75000000 </v>
    <v>       0.00030774       0.50000000       0.00000000 </v>
    <v>       0.16702480       0.58333333       0.75000000 </v>
    <v>       0.16702480       0.75000000       0.75000000 </v>
    <v>       0.16702480       0.75000000       0.00000000 </v>
    <v>       0.00030774       0.66666667       0.00000000 </v>
    <v>       0.16702480       0.91666667       0.00000000 </v>
    <v>       0.00030774       0.83333333       0.75000000 </v>
    <v>       0.00030774       0.00000000       0.75000000 </v>
    <v>       0.00030774       0.00000000       0.00000000 </v>
    <v>       0.16702480       0.08333333       0.75000000 </v>
    <v>       0.16702480       0.25000000       0.75000000 </v>
    <v>       0.16702480       0.25000000       0.00000000 </v>
    <v>       0.00030774       0.16666667       0.00000000 </v>
    <v>       0.16702480       0.41666667       0.00000000 </v>
    <v>       0.00030774       0.33333333       0.75000000 </v>
   </varray>
  </structure>
  <varray name="forces" >
   <v>       0.06145498       0.63992491      -0.00010363 </v>
   <v>       0.05819962      -0.63806606       0.00006243 </v>
   <v>       0.00121974      -0.52446795      -0.00008253 </v>
   <v>       0.00003652       0.55855966      -0.00008793 </v>
   <v>       0.00007693      -0.56233724       0.00004672 </v>
   <v>       0.07147878       0.61617320       0.00012024 </v>
   <v>       0.00120063       0.52451055       0.00007576 </v>
   <v>       0.07145298      -0.61607884      -0.00011567 </v>
   <v>       0.06134862       0.63993547      -0.00005581 </v>
   <v>       0.05818215      -0.63814146       0.00004659 </v>
   <v>       0.00121559      -0.52436533      -0.00006527 </v>
   <v>       0.00007222       0.55857407      -0.00005247 </v>
   <v>       0.00010132      -0.56232282       0.00004267 </v>
   <v>       0.07148644       0.61612816       0.00006632 </v>
   <v>       0.00123066       0.52455732       0.00006726 </v>
   <v>       0.07139534      -0.61606251      -0.00009761 </v>
   <v>      -0.01063217       0.65084766      -0.00009280 </v>
   <v>      -0.00747409      -0.64903399       0.00003678 </v>
   <v>       0.02444998      -0.62636145      -0.00013985 </v>
   <v>       0.01371276       0.65036091      -0.00010405 </v>
   <v>       0.01046727      -0.64851634       0.00006786 </v>
   <v>      -0.01964885       0.62801900       0.00011862 </v>
   <v>       0.02443323       0.62651991       0.00009885 </v>
   <v>      -0.01960277      -0.62796259      -0.00011261 </v>
   <v>      -0.01069879       0.65082380      -0.00005170 </v>
   <v>      -0.00745751      -0.64902385       0.00004702 </v>
   <v>       0.02431395      -0.62661113      -0.00010116 </v>
   <v>       0.01366849       0.65030584      -0.00006088 </v>
   <v>       0.01047666      -0.64851759       0.00005326 </v>
   <v>      -0.01957344       0.62799918       0.00009489 </v>
   <v>       0.02440774       0.62650891       0.00008485 </v>
   <v>      -0.01958192      -0.62790527      -0.00008103 </v>
   <v>      -0.00976763       0.55859568      -0.00011796 </v>
   <v>      -0.00972864      -0.56236960       0.00002565 </v>
   <v>      -0.06663543      -0.61756063      -0.00012068 </v>
   <v>      -0.05846718       0.64043785      -0.00009098 </v>
   <v>      -0.05520775      -0.63854720       0.00007178 </v>
   <v>      -0.00714697       0.52462897       0.00009033 </v>
   <v>      -0.06663196       0.61752602       0.00010954 </v>
   <v>      -0.00713163      -0.52441712      -0.00011434 </v>
   <v>      -0.00979948       0.55857353      -0.00008208 </v>
   <v>      -0.00978607      -0.56234118       0.00004847 </v>
   <v>      -0.06659425      -0.61747451      -0.00011288 </v>
   <v>      -0.05840865       0.64047719      -0.00007985 </v>
   <v>      -0.05520385      -0.63859578       0.00003015 </v>
   <v>      -0.00714861       0.52460813       0.00007200 </v>
   <v>      -0.06667552       0.61752240       0.00008716 </v>
   <v>      -0.00725169      -0.52445112      -0.00007806 </v>
   <v>       0.05836034       0.63836833       0.00005292 </v>
   <v>       0.05855311      -0.63818941      -0.00006708 </v>
   <v>       0.00119133      -0.52447718       0.00006932 </v>
   <v>       0.00012920       0.56196907       0.00004768 </v>
   <v>       0.00006653      -0.56195942      -0.00000991 </v>
   <v>       0.07151067       0.61604828      -0.00001407 </v>
   <v>       0.00118988       0.52448412      -0.00004158 </v>
   <v>       0.07149466      -0.61621205       0.00007444 </v>
   <v>       0.05841387       0.63831615       0.00007311 </v>
   <v>       0.05856353      -0.63818110      -0.00003587 </v>
   <v>       0.00124303      -0.52448276       0.00005477 </v>
   <v>       0.00014823       0.56199989       0.00005830 </v>
   <v>       0.00003649      -0.56194287      -0.00003054 </v>
   <v>       0.07149597       0.61610017      -0.00006062 </v>
   <v>       0.00125745       0.52451476      -0.00006540 </v>
   <v>       0.07146490      -0.61620253       0.00007185 </v>
   <v>      -0.00772226       0.64918566       0.00005922 </v>
   <v>      -0.00773782      -0.64922344      -0.00000260 </v>
   <v>       0.02443144      -0.62656876       0.00004331 </v>
   <v>       0.01066734       0.64877660       0.00006174 </v>
   <v>       0.01080362      -0.64865620      -0.00001207 </v>
   <v>      -0.01960073       0.62796884      -0.00003976 </v>
   <v>       0.02441377       0.62647915      -0.00004167 </v>
   <v>      -0.01958113      -0.62810016       0.00004192 </v>
   <v>      -0.00771147       0.64921271       0.00005266 </v>
   <v>      -0.00772940      -0.64922196      -0.00004467 </v>
   <v>       0.02439728      -0.62665585       0.00006007 </v>
   <v>       0.01063530       0.64878093       0.00006691 </v>
   <v>       0.01080765      -0.64863902      -0.00005111 </v>
   <v>      -0.01959809       0.62793654      -0.00005167 </v>
   <v>       0.02442324       0.62648564      -0.00004762 </v>
   <v>      -0.01957033      -0.62810919       0.00005869 </v>
   <v>      -0.00968398       0.56205181       0.00009833 </v>
   <v>      -0.00985594      -0.56195586      -0.00003246 </v>
   <v>      -0.06665976      -0.61759800       0.00003727 </v>
   <v>      -0.05547329       0.63867780       0.00004112 </v>
   <v>      -0.05546197      -0.63879938      -0.00002773 </v>
   <v>      -0.00715579       0.52451867      -0.00002543 </v>
   <v>      -0.06668735       0.61749404      -0.00004158 </v>
   <v>      -0.00716861      -0.52457031       0.00004651 </v>
   <v>      -0.00970151       0.56199918       0.00007477 </v>
   <v>      -0.00986662      -0.56197446      -0.00002999 </v>
   <v>      -0.06663305      -0.61760172       0.00004870 </v>
   <v>      -0.05542797       0.63871623       0.00009870 </v>
   <v>      -0.05548328      -0.63880838      -0.00004873 </v>
   <v>      -0.00720533       0.52451492      -0.00005888 </v>
   <v>      -0.06665942       0.61748851      -0.00005985 </v>
   <v>      -0.00715150      -0.52454473       0.00008519 </v>
  </varray>
  <varray name="stress" >
   <v>    -209.67062435       0.00009694      -0.00006160 </v>
   <v>       0.00009908    -138.59342010      -0.00009022 </v>
   <v>      -0.00005734      -0.00007722    -239.30776836 </v>
  </varray>
  <energy>
   <i name="e_fr_energy">   -849.68343159</i>
   <i name="e_wo_entrp">   -849.46608345</i>
   <i name="e_0_energy">     -0.43469630</i>
  </energy>
 </calculation>
 <calculation>
  <scstep>
   <time name="diag">    1.26    1.26</time>
   <time name="diis">    3.37    3.37</time>
   <time name="orth">    0.36    0.36</time>
   <time name="total">    5.41    5.41</time>
   <energy>
    <i name="alphaZ">    590.88339932</i>
    <i name="ewald"> -11367.51106640</i>
    <i name="hartreedc">  -4437.72264970</i>
    <i name="XCdc">   1411.75643675</i>
    <i name="pawpsdc">   2637.81253087</i>
    <i name="pawaedc">  -2760.42651069</i>
    <i name="eentropy">     -0.10098923</i>
    <i name="bandstr">  -1033.26244377</i>
    <i name="atom">  14102.14777378</i>
    <i name="e_fr_energy">   -856.42351907</i>
    <i name="e_wo_entrp">   -856.32252984</i>
    <i name="e_0_energy">   -856.37302445</i>
   </energy>
  </scstep>
  <scstep>
   <time name="diag">    1.26    1.26</time>
   <time name="diis">    3.35    3.35</time>
   <time name="orth">    0.36    0.36</time>
   <time name="total">    5.39    5.42</time>
   <energy>
    <i name="e_fr_energy">   -855.44888745</i>
    <i name="e_wo_entrp">   -855.32360307</i>
    <i name="e_0_energy">   -855.38624526</i>
   </energy>
  </scstep>
  <scstep>
   <time name="diag">    1.26    1.26</time>
   <time name="diis">    3.36    3.36</time>
   <time name="orth">    0.36    0.36</time>
   <time name="total">    5.41    5.43</time>
   <energy>
    <i name="e_fr_energy">   -855.10677528</i>
    <i name="e_wo_entrp">   -854.94833753</i>
    <i name="e_0_energy">   -855.02755641</i>
   </energy>
  </scstep>
  <scstep>
   <time name="diag">    1.26    1.26</time>
   <time name="diis">    3.39    3.39</time>
   <time name="orth">    0.36    0.36</time>
   <time name="total">    5.44    5.46</time>
   <energy>
    <i name="e_fr_energy">   -854.75581104</i>
    <i name="e_wo_entrp">   -854.59433136</i>
    <i name="e_0_energy">   -854.67507120</i>
   </energy>
  </scstep>
  <scstep>
   <time name="diag">    1.25    1.26</time>
   <time name="diis">    3.35    3.35</time>
   <time name="orth">    0.36    0.36</time>
   <time name="total">    5.39    5.41</time>
   <energy>
    <i name="e_fr_energy">   -854.57299814</i>
    <i name="e_wo_entrp">   -854.42618985</i>
    <i name="e_0_energy">   -854.49959399</i>
   </energy>
  </scstep>
  <scstep>
   <time name="diag">    1.25    1.26</time>
   <time name="diis">    3.37    3.37</time>
   <time name="orth">    0.36    0.36</time>
   <time name="total">    5.41    5.41</time>
   <energy>
    <i name="e_fr_energy">   -854.54572155</i>
    <i name="e_wo_entrp">   -854.40263283</i>
    <i name="e_0_energy">   -854.47417719</i>
   </energy>
  </scstep>
  <scstep>
   <time name="diag">    1.25    1.25</time>
   <time name="diis">    3.32    3.32</time>
   <time name="orth">    0.36    0.36</time>
   <time name="total">    5.36    5.37</time>
   <energy>
    <i name="e_fr_energy">   -854.52267659</i>
    <i name="e_wo_entrp">   -854.38351198</i>
    <i name="e_0_energy">   -854.45309429</i>
   </energy>
  </scstep>
  <scstep>
   <time name="diag">    1.26    1.26</time>
   <time name="diis">    3.36    3.36</time>
   <time name="orth">    0.36    0.36</time>
   <time name="total">    5.40    5.42</time>
   <energy>
    <i name="e_fr_energy">   -854.47982395</i>
    <i name="e_wo_entrp">   -854.34948544</i>
    <i name="e_0_energy">   -854.41465469</i>
   </energy>
  </scstep>
  <scstep>
   <time name="diag">    1.27    1.27</time>
   <time name="diis">    3.40    3.40</time>
   <time name="orth">    0.36    0.36</time>
   <time name="total">    5.46    5.47</time>
   <energy>
    <i name="e_fr_energy">   -854.46755811</i>
    <i name="e_wo_entrp">   -854.34120311</i>
    <i name="e_0_energy">   -854.40438061</i>
   </energy>
  </scstep>
  <scstep>
   <time name="diag">    1.27    1.27</time>
   <time name="diis">    3.41    3.41</time>
   <time name="orth">    0.36    0.36</time>
   <time name="total">    5.47    5.47</time>
   <energy>
    <i name="e_fr_energy">   -854.46452619</i>
    <i name="e_wo_entrp">   -854.33982707</i>
    <i name="e_0_energy">   -854.40217663</i>
   </energy>
  </scstep>
  <scstep>
   <time name="diag">    1.27    1.27</time>
   <time name="diis">    2.58    2.58</time>
   <time name="orth">    0.36    0.36</time>
   <time name="total">    4.64    4.66</time>
   <energy>
    <i name="e_fr_energy">   -854.46507623</i>
    <i name="e_wo_entrp">   -854.34045216</i>
    <i name="e_0_energy">   -854.40276420</i>
   </energy>
  </scstep>
  <scstep>
   <time name="diag">    1.27    1.27</time>
   <time name="diis">    2.69    2.69</time>
   <time name="orth">    0.36    0.36</time>
   <time name="total">    4.39    4.42</time>
   <energy>
    <i name="alphaZ">    590.88339932</i>
    <i name="ewald"> -11367.51106640</i>
    <i name="hartreedc">  -4290.04549077</i>
    <i name="XCdc">   1402.38397995</i>
    <i name="pawpsdc">   2767.26638862</i>
    <i name="pawaedc">  -2893.22235597</i>
    <i name="eentropy">     -0.12436899</i>
    <i name="bandstr">  -1166.24329037</i>
    <i name="atom">  14102.14777378</i>
    <i name="e_fr_energy">   -854.46503083</i>
    <i name="e_wo_entrp">   -854.34066184</i>
    <i name="e_0_energy">   -854.40284634</i>
   </energy>
  </scstep>
  <structure>
   <crystal>
    <varray name="basis" >
     <v>       7.21817253       0.00000007      -0.00000005 </v>
     <v>       0.00000009       8.39929293      -0.00000008 </v>
     <v>      -0.00000008      -0.00000011      13.07219761 </v>
    </varray>
    <i name="volume">    792.53525535</i>
    <varray name="rec_basis" >
     <v>       0.13853922       0.00000000       0.00000000 </v>
     <v>       0.00000000       0.11905764       0.00000000 </v>
     <v>       0.00000000       0.00000000       0.07649823 </v>
    </varray>
   </crystal>
   <varray name="positions" >
    <v>       0.33359101       0.50140230       0.24999986 </v>
    <v>       0.33358277       0.49860177       0.50000009 </v>
    <v>       0.50015696       0.58218404       0.24999989 </v>
    <v>       0.50015396       0.75122400       0.24999988 </v>
    <v>       0.50015407       0.74876772       0.50000007 </v>
    <v>       0.33361638       0.66801692       0.50000017 </v>
    <v>       0.50015691       0.91781605       0.50000011 </v>
    <v>       0.33361632       0.83198329       0.24999984 </v>
    <v>       0.33359074       0.00140232       0.24999992 </v>
    <v>       0.33358273      -0.00139839       0.50000006 </v>
    <v>       0.50015695       0.08218427       0.24999991 </v>
    <v>       0.50015405       0.25122403       0.24999993 </v>
    <v>       0.50015413       0.24876775       0.50000006 </v>
    <v>       0.33361640       0.16801682       0.50000009 </v>
    <v>       0.50015699       0.41781615       0.50000009 </v>
    <v>       0.33361617       0.33198333       0.24999986 </v>
    <v>       0.66684401       0.50142623       0.24999987 </v>
    <v>       0.66685201       0.49857774       0.50000005 </v>
    <v>       0.83365122       0.58196076       0.24999981 </v>
    <v>       0.83362404       0.75142517       0.24999986 </v>
    <v>       0.83361583       0.74857887       0.50000009 </v>
    <v>       0.66682119       0.66804288       0.50000017 </v>
    <v>       0.83365118       0.91803959       0.50000014 </v>
    <v>       0.66682131       0.83195725       0.24999984 </v>
    <v>       0.66684385       0.00142618       0.24999993 </v>
    <v>       0.66685205      -0.00142224       0.50000007 </v>
    <v>       0.83365088       0.08196021       0.24999986 </v>
    <v>       0.83362393       0.25142505       0.24999992 </v>
    <v>       0.83361585       0.24857887       0.50000007 </v>
    <v>       0.66682138       0.16804283       0.50000013 </v>
    <v>       0.83365111       0.41803957       0.50000012 </v>
    <v>       0.66682136       0.33195737       0.24999989 </v>
    <v>       0.00028302       0.50122408       0.24999984 </v>
    <v>       0.00028312       0.49876765       0.50000004 </v>
    <v>       0.16685613       0.58198004       0.24999983 </v>
    <v>       0.16687681       0.75140342       0.24999987 </v>
    <v>       0.16688506       0.74860072       0.50000010 </v>
    <v>       0.00028965       0.66781631       0.50000013 </v>
    <v>       0.16685614       0.91801988       0.50000015 </v>
    <v>       0.00028969       0.83218415       0.24999984 </v>
    <v>       0.00028294       0.00122403       0.24999989 </v>
    <v>       0.00028297      -0.00123229       0.50000007 </v>
    <v>       0.16685624       0.08198023       0.24999984 </v>
    <v>       0.16687696       0.25140351       0.24999989 </v>
    <v>       0.16688507       0.24860061       0.50000004 </v>
    <v>       0.00028965       0.16781627       0.50000010 </v>
    <v>       0.16685603       0.41801987       0.50000012 </v>
    <v>       0.00028939       0.33218408       0.24999989 </v>
    <v>       0.33358318       0.50139889       0.75000007 </v>
    <v>       0.33358367       0.49860150      -0.00000009 </v>
    <v>       0.50015689       0.58218402       0.75000010 </v>
    <v>       0.50015420       0.75123147       0.75000007 </v>
    <v>       0.50015404       0.74876855      -0.00000001 </v>
    <v>       0.33361647       0.66801664      -0.00000002 </v>
    <v>       0.50015688       0.91781599      -0.00000006 </v>
    <v>       0.33361642       0.83198300       0.75000010 </v>
    <v>       0.33358332       0.00139877       0.75000010 </v>
    <v>       0.33358369      -0.00139848      -0.00000005 </v>
    <v>       0.50015702       0.08218401       0.75000008 </v>
    <v>       0.50015425       0.25123154       0.75000008 </v>
    <v>       0.50015396       0.24876859      -0.00000004 </v>
    <v>       0.33361643       0.16801676      -0.00000008 </v>
    <v>       0.50015705       0.41781606      -0.00000009 </v>
    <v>       0.33361635       0.33198302       0.75000010 </v>
    <v>       0.66685138       0.50142259       0.75000008 </v>
    <v>       0.66685134       0.49857732       0.00000000 </v>
    <v>       0.83365117       0.58196030       0.75000006 </v>
    <v>       0.83361633       0.75142170       0.75000009 </v>
    <v>       0.83361668       0.74857857      -0.00000002 </v>
    <v>       0.66682131       0.66804277      -0.00000006 </v>
    <v>       0.83365113       0.91803950      -0.00000006 </v>
    <v>       0.66682136       0.83195695       0.75000006 </v>
    <v>       0.66685141       0.00142265       0.75000007 </v>
    <v>       0.66685136      -0.00142267      -0.00000006 </v>
    <v>       0.83365109       0.08196011       0.75000008 </v>
    <v>       0.83361625       0.25142171       0.75000009 </v>
    <v>       0.83361669       0.24857861      -0.00000007 </v>
    <v>       0.66682132       0.16804269      -0.00000007 </v>
    <v>       0.83365115       0.41803952      -0.00000007 </v>
    <v>       0.66682139       0.33195693       0.75000008 </v>
    <v>       0.00028323       0.50123165       0.75000014 </v>
    <v>       0.00028280       0.49876856      -0.00000005 </v>
    <v>       0.16685607       0.58197996       0.75000005 </v>
    <v>       0.16688439       0.75139957       0.75000006 </v>
    <v>       0.16688442       0.74860017      -0.00000004 </v>
    <v>       0.00028963       0.66781607      -0.00000004 </v>
    <v>       0.16685600       0.91801981      -0.00000006 </v>
    <v>       0.00028960       0.83218382       0.75000006 </v>
    <v>       0.00028319       0.00123154       0.75000010 </v>
    <v>       0.00028277      -0.00123148      -0.00000004 </v>
    <v>       0.16685614       0.08197995       0.75000007 </v>
    <v>       0.16688450       0.25139965       0.75000014 </v>
    <v>       0.16688436       0.24860015      -0.00000007 </v>
    <v>       0.00028951       0.16781606      -0.00000008 </v>
    <v>       0.16685607       0.41801980      -0.00000008 </v>
    <v>       0.00028964       0.33218387       0.75000012 </v>
   </varray>
  </structure>
  <varray name="forces" >
   <v>      -0.03015735       0.48899172      -0.00003080 </v>
   <v>      -0.02219826      -0.48839264      -0.00007045 </v>
   <v>       0.05176058      -0.55330714      -0.00012505 </v>
   <v>       0.05062204       0.65089281      -0.00005186 </v>
   <v>       0.05097527      -0.63880764      -0.00008333 </v>
   <v>      -0.03263784       0.38686837      -0.00042006 </v>
   <v>       0.05149402       0.55003933      -0.00041154 </v>
   <v>      -0.03316670      -0.39161481      -0.00012822 </v>
   <v>      -0.03006389       0.48899729      -0.00003013 </v>
   <v>      -0.02218622      -0.48836244      -0.00008267 </v>
   <v>       0.05168399      -0.55346902      -0.00013506 </v>
   <v>       0.05062438       0.65094651      -0.00005698 </v>
   <v>       0.05100090      -0.63887291      -0.00006339 </v>
   <v>      -0.03266890       0.38693638      -0.00040623 </v>
   <v>       0.05144614       0.54997958      -0.00039943 </v>
   <v>      -0.03303016      -0.39168483      -0.00014463 </v>
   <v>      -0.00522350       0.51663393      -0.00003464 </v>
   <v>      -0.01367950      -0.51497313      -0.00008554 </v>
   <v>      -0.03196588      -0.38678694      -0.00014502 </v>
   <v>      -0.02765507       0.48449309      -0.00003978 </v>
   <v>      -0.01963842      -0.48383307      -0.00008654 </v>
   <v>      -0.00063460       0.41567894      -0.00041829 </v>
   <v>      -0.03155824       0.38216086      -0.00042394 </v>
   <v>      -0.00059197      -0.42027616      -0.00013644 </v>
   <v>      -0.00533718       0.51650664      -0.00003920 </v>
   <v>      -0.01374852      -0.51507533      -0.00005598 </v>
   <v>      -0.03188276      -0.38672835      -0.00015725 </v>
   <v>      -0.02765074       0.48441332      -0.00005124 </v>
   <v>      -0.01968078      -0.48401446      -0.00007285 </v>
   <v>      -0.00077640       0.41562019      -0.00040390 </v>
   <v>      -0.03152384       0.38203441      -0.00041927 </v>
   <v>      -0.00054589      -0.42032888      -0.00014488 </v>
   <v>       0.01301368       0.64743689      -0.00005002 </v>
   <v>       0.01345346      -0.63530012      -0.00009017 </v>
   <v>       0.00047430      -0.42511343      -0.00015296 </v>
   <v>      -0.00280253       0.52111243      -0.00003073 </v>
   <v>      -0.01116761      -0.51977012      -0.00006024 </v>
   <v>       0.01542046       0.54978468      -0.00040948 </v>
   <v>       0.00029332       0.42067029      -0.00043110 </v>
   <v>       0.01564064      -0.55323854      -0.00013693 </v>
   <v>       0.01305767       0.64747311      -0.00004788 </v>
   <v>       0.01362750      -0.63537898      -0.00008992 </v>
   <v>       0.00033435      -0.42522559      -0.00015176 </v>
   <v>      -0.00296131       0.52112133      -0.00004493 </v>
   <v>      -0.01120050      -0.51970459      -0.00003626 </v>
   <v>       0.01544436       0.54975569      -0.00040353 </v>
   <v>       0.00037249       0.42074308      -0.00039640 </v>
   <v>       0.01570883      -0.55329871      -0.00014942 </v>
   <v>      -0.02545511       0.48511093       0.00007841 </v>
   <v>      -0.02372753      -0.49033931       0.00006497 </v>
   <v>       0.05160054      -0.54876826       0.00012973 </v>
   <v>       0.05023291       0.64166964       0.00005370 </v>
   <v>       0.05097520      -0.64158097       0.00006570 </v>
   <v>      -0.03332683       0.38865571       0.00041407 </v>
   <v>       0.05150868       0.55107511       0.00041437 </v>
   <v>      -0.03278519      -0.38592395       0.00012288 </v>
   <v>      -0.02542419       0.48511519       0.00003519 </v>
   <v>      -0.02375168      -0.49041202       0.00005163 </v>
   <v>       0.05156169      -0.54868911       0.00012539 </v>
   <v>       0.05016265       0.64166939       0.00004851 </v>
   <v>       0.05102557      -0.64164116       0.00006515 </v>
   <v>      -0.03328202       0.38849863       0.00040176 </v>
   <v>       0.05133863       0.55098473       0.00040087 </v>
   <v>      -0.03278688      -0.38586972       0.00017260 </v>
   <v>      -0.00958631       0.51292645       0.00007795 </v>
   <v>      -0.01215128      -0.51708252       0.00006229 </v>
   <v>      -0.03162130      -0.38111236       0.00016243 </v>
   <v>      -0.02290364       0.48052841       0.00005060 </v>
   <v>      -0.02115587      -0.48582325       0.00005984 </v>
   <v>      -0.00014704       0.41719120       0.00042877 </v>
   <v>      -0.03208463       0.38372323       0.00039388 </v>
   <v>      -0.00076920      -0.41423435       0.00012572 </v>
   <v>      -0.00955667       0.51288989       0.00003741 </v>
   <v>      -0.01214752      -0.51705568       0.00004572 </v>
   <v>      -0.03154003      -0.38089143       0.00015450 </v>
   <v>      -0.02289114       0.48056483       0.00005237 </v>
   <v>      -0.02110215      -0.48592015       0.00005271 </v>
   <v>      -0.00009763       0.41727952       0.00040893 </v>
   <v>      -0.03205960       0.38363860       0.00038681 </v>
   <v>      -0.00083069      -0.41420762       0.00016951 </v>
   <v>       0.01263716       0.63806770       0.00010591 </v>
   <v>       0.01344202      -0.63805550       0.00008343 </v>
   <v>       0.00024930      -0.41925711       0.00015381 </v>
   <v>      -0.00715151       0.51758434       0.00006395 </v>
   <v>      -0.00974996      -0.52171685       0.00003344 </v>
   <v>       0.01539297       0.55096557       0.00042311 </v>
   <v>       0.00091400       0.42232353       0.00041266 </v>
   <v>       0.01553472      -0.54861659       0.00011378 </v>
   <v>       0.01260724       0.63815184       0.00004300 </v>
   <v>       0.01342502      -0.63807113       0.00005681 </v>
   <v>       0.00029988      -0.41935054       0.00015894 </v>
   <v>      -0.00717668       0.51744193       0.00006975 </v>
   <v>      -0.00971209      -0.52177137       0.00003088 </v>
   <v>       0.01546108       0.55091542       0.00040651 </v>
   <v>       0.00089565       0.42233257       0.00039644 </v>
   <v>       0.01559559      -0.54864644       0.00016950 </v>
  </varray>
  <varray name="stress" >
   <v>       0.43052118       0.00005160      -0.00016457 </v>
   <v>       0.00004442     197.53856562       0.00024872 </v>
   <v>      -0.00016691       0.00025841    -184.86472663 </v>
  </varray>
  <energy>
   <i name="e_fr_energy">   -854.46503083</i>
   <i name="e_wo_entrp">   -854.40284634</i>
   <i name="e_0_energy">     -0.12436899</i>
  </energy>
 </calculation>
 <calculation>
  <scstep>
   <time name="diag">    1.27    1.27</time>
   <time name="diis">    3.37    3.38</time>
   <time name="orth">    0.36    0.36</time>
   <time name="total">    5.43    5.43</time>
   <energy>
    <i name="alphaZ">    596.27571075</i>
    <i name="ewald"> -11412.21403993</i>
    <i name="hartreedc">  -4298.63878871</i>
    <i name="XCdc">   1406.42289865</i>
    <i name="pawpsdc">   2766.99909266</i>
    <i name="pawaedc">  -2892.95144960</i>
    <i name="eentropy">     -0.09509608</i>
    <i name="bandstr">  -1122.57617686</i>
    <i name="atom">  14102.14777378</i>
    <i name="e_fr_energy">   -854.63007533</i>
    <i name="e_wo_entrp">   -854.53497926</i>
    <i name="e_0_energy">   -854.58252730</i>
   </energy>
  </scstep>
  <scstep>
   <time name="diag">    1.27    1.27</time>
   <time name="diis">    3.38    3.38</time>
   <time name="orth">    0.36    0.36</time>
   <time name="total">    5.44    5.47</time>
   <energy>
    <i name="e_fr_energy">   -854.59898298</i>
    <i name="e_wo_entrp">   -854.49903575</i>
    <i name="e_0_energy">   -854.54900937</i>
   </energy>
  </scstep>
  <scstep>
   <time name="diag">    1.27    1.27</time>
   <time name="diis">    3.39    3.39</time>
   <time name="orth">    0.36    0.36</time>
   <time name="total">    5.45    5.46</time>
   <energy>
    <i name="e_fr_energy">   -854.59612447</i>
    <i name="e_wo_entrp">   -854.49755339</i>
    <i name="e_0_energy">   -854.54683893</i>
   </energy>
  </scstep>
  <scstep>
   <time name="diag">    1.26    1.26</time>
   <time name="diis">    2.72    2.72</time>
   <time name="orth">    0.36    0.36</time>
   <time name="total">    4.78    4.80</time>
   <energy>
    <i name="e_fr_energy">   -854.59291711</i>
    <i name="e_wo_entrp">   -854.49519363</i>
    <i name="e_0_energy">   -854.54405537</i>
   </energy>
  </scstep>
  <scstep>
   <time name="diag">    1.27    1.27</time>
   <time name="diis">    2.18    2.18</time>
   <time name="orth">    0.36    0.36</time>
   <time name="total">    3.88    3.89</time>
   <energy>
    <i name="alphaZ">    596.27571075</i>
    <i name="ewald"> -11412.21403993</i>
    <i name="hartreedc">  -4276.86599563</i>
    <i name="XCdc">   1405.04133365</i>
    <i name="pawpsdc">   2788.04702555</i>
    <i name="pawaedc">  -2914.51293181</i>
    <i name="eentropy">     -0.09769795</i>
    <i name="bandstr">  -1142.41408237</i>
    <i name="atom">  14102.14777378</i>
    <i name="e_fr_energy">   -854.59290395</i>
    <i name="e_wo_entrp">   -854.49520600</i>
    <i name="e_0_energy">   -854.54405498</i>
   </energy>
  </scstep>
  <structure>
   <crystal>
    <varray name="basis" >
     <v>       7.19479926       0.00000008      -0.00000005 </v>
     <v>       0.00000010       8.38144748      -0.00000009 </v>
     <v>      -0.00000009      -0.00000012      13.02373501 </v>
    </varray>
    <i name="volume">    785.36810625</i>
    <varray name="rec_basis" >
     <v>       0.13898928       0.00000000       0.00000000 </v>
     <v>       0.00000000       0.11931113       0.00000000 </v>
     <v>       0.00000000       0.00000000       0.07678289 </v>
    </varray>
   </crystal>
   <varray name="positions" >
    <v>       0.33361451       0.50161260       0.24999983 </v>
    <v>       0.33360503       0.49839209       0.50000010 </v>
    <v>       0.50015743       0.58201169       0.24999987 </v>
    <v>       0.50015398       0.75140756       0.24999986 </v>
    <v>       0.50015410       0.74858292       0.50000007 </v>
    <v>       0.33364372       0.66821941       0.50000019 </v>
    <v>       0.50015737       0.91798842       0.50000012 </v>
    <v>       0.33364364       0.83178083       0.24999981 </v>
    <v>       0.33361420       0.00161262       0.24999991 </v>
    <v>       0.33360498      -0.00160810       0.50000007 </v>
    <v>       0.50015741       0.08201195       0.24999990 </v>
    <v>       0.50015408       0.25140759       0.24999992 </v>
    <v>       0.50015417       0.24858296       0.50000007 </v>
    <v>       0.33364374       0.16821929       0.50000011 </v>
    <v>       0.50015746       0.41798854       0.50000011 </v>
    <v>       0.33364348       0.33178087       0.24999984 </v>
    <v>       0.66683995       0.50164012       0.24999985 </v>
    <v>       0.66684915       0.49836445       0.50000006 </v>
    <v>       0.83366057       0.58175492       0.24999978 </v>
    <v>       0.83362929       0.75163889       0.24999983 </v>
    <v>       0.83361983       0.74836575       0.50000011 </v>
    <v>       0.66681368       0.66824926       0.50000019 </v>
    <v>       0.83366052       0.91824548       0.50000016 </v>
    <v>       0.66681381       0.83175088       0.24999982 </v>
    <v>       0.66683975       0.00164006       0.24999992 </v>
    <v>       0.66684920      -0.00163552       0.50000008 </v>
    <v>       0.83366017       0.08175429       0.24999984 </v>
    <v>       0.83362916       0.25163875       0.24999990 </v>
    <v>       0.83361986       0.24836575       0.50000009 </v>
    <v>       0.66681390       0.16824921       0.50000015 </v>
    <v>       0.83366045       0.41824545       0.50000014 </v>
    <v>       0.66681387       0.33175103       0.24999987 </v>
    <v>       0.00027929       0.50140765       0.24999981 </v>
    <v>       0.00027940       0.49858284       0.50000004 </v>
    <v>       0.16683065       0.58177710       0.24999981 </v>
    <v>       0.16685445       0.75161389       0.24999985 </v>
    <v>       0.16686395       0.74839088       0.50000012 </v>
    <v>       0.00028692       0.66798872       0.50000014 </v>
    <v>       0.16683066       0.91822282       0.50000018 </v>
    <v>       0.00028697       0.83201181       0.24999982 </v>
    <v>       0.00027919       0.00140759       0.24999987 </v>
    <v>       0.00027923      -0.00141709       0.50000008 </v>
    <v>       0.16683077       0.08177731       0.24999982 </v>
    <v>       0.16685462       0.25161399       0.24999987 </v>
    <v>       0.16686396       0.24839075       0.50000005 </v>
    <v>       0.00028692       0.16798867       0.50000012 </v>
    <v>       0.16683054       0.41822281       0.50000014 </v>
    <v>       0.00028662       0.33201173       0.24999987 </v>
    <v>       0.33360550       0.50160867       0.75000008 </v>
    <v>       0.33360606       0.49839178      -0.00000011 </v>
    <v>       0.50015734       0.58201166       0.75000011 </v>
    <v>       0.50015425       0.75141615       0.75000008 </v>
    <v>       0.50015407       0.74858388      -0.00000002 </v>
    <v>       0.33364381       0.66821909      -0.00000002 </v>
    <v>       0.50015734       0.91798835      -0.00000007 </v>
    <v>       0.33364376       0.83178049       0.75000012 </v>
    <v>       0.33360565       0.00160854       0.75000012 </v>
    <v>       0.33360609      -0.00160820      -0.00000006 </v>
    <v>       0.50015749       0.08201165       0.75000009 </v>
    <v>       0.50015430       0.25141623       0.75000009 </v>
    <v>       0.50015398       0.24858392      -0.00000005 </v>
    <v>       0.33364377       0.16821922      -0.00000010 </v>
    <v>       0.50015754       0.41798843      -0.00000010 </v>
    <v>       0.33364368       0.33178052       0.75000012 </v>
    <v>       0.66684843       0.50163593       0.75000010 </v>
    <v>       0.66684838       0.49836397       0.00000000 </v>
    <v>       0.83366052       0.58175440       0.75000007 </v>
    <v>       0.83362041       0.75163490       0.75000010 </v>
    <v>       0.83362081       0.74836540      -0.00000002 </v>
    <v>       0.66681382       0.66824913      -0.00000006 </v>
    <v>       0.83366046       0.91824538      -0.00000007 </v>
    <v>       0.66681388       0.83175054       0.75000007 </v>
    <v>       0.66684846       0.00163600       0.75000008 </v>
    <v>       0.66684841      -0.00163602      -0.00000007 </v>
    <v>       0.83366042       0.08175418       0.75000010 </v>
    <v>       0.83362032       0.25163491       0.75000011 </v>
    <v>       0.83362082       0.24836545      -0.00000008 </v>
    <v>       0.66681383       0.16824905      -0.00000008 </v>
    <v>       0.83366049       0.41824540      -0.00000008 </v>
    <v>       0.66681391       0.33175051       0.75000009 </v>
    <v>       0.00027953       0.50141636       0.75000016 </v>
    <v>       0.00027903       0.49858388      -0.00000005 </v>
    <v>       0.16683058       0.58177700       0.75000006 </v>
    <v>       0.16686317       0.75160945       0.75000007 </v>
    <v>       0.16686321       0.74839024      -0.00000004 </v>
    <v>       0.00028690       0.66798844      -0.00000004 </v>
    <v>       0.16683050       0.91822274      -0.00000007 </v>
    <v>       0.00028686       0.83201143       0.75000007 </v>
    <v>       0.00027948       0.00141622       0.75000012 </v>
    <v>       0.00027900      -0.00141616      -0.00000005 </v>
    <v>       0.16683066       0.08177699       0.75000008 </v>
    <v>       0.16686331       0.25160955       0.75000016 </v>
    <v>       0.16686314       0.24839022      -0.00000008 </v>
    <v>       0.00028675       0.16798843      -0.00000009 </v>
    <v>       0.16683058       0.41822272      -0.00000010 </v>
    <v>       0.00028691       0.33201149       0.75000014 </v>
   </varray>
  </structure>
  <varray name="forces" >
   <v>      -0.04986075       0.35025808       0.00031109 </v>
   <v>      -0.03964223      -0.34413427      -0.00080691 </v>
   <v>       0.03492917      -0.38816930       0.00035093 </v>
   <v>       0.03465973       0.50536101       0.00031487 </v>
   <v>       0.03404988      -0.48875850      -0.00089311 </v>
   <v>      -0.05257485       0.22731496      -0.00206541 </v>
   <v>       0.03467074       0.38461412      -0.00200654 </v>
   <v>      -0.05315256      -0.23543058       0.00036516 </v>
   <v>      -0.04974976       0.35034034       0.00029665 </v>
   <v>      -0.03958535      -0.34411187      -0.00082324 </v>
   <v>       0.03491882      -0.38823162       0.00035749 </v>
   <v>       0.03463189       0.50546199       0.00031381 </v>
   <v>       0.03411314      -0.48891741      -0.00088441 </v>
   <v>      -0.05260081       0.22734680      -0.00207013 </v>
   <v>       0.03459986       0.38457157      -0.00198728 </v>
   <v>      -0.05300836      -0.23535593       0.00035644 </v>
   <v>       0.03443514       0.33109657       0.00030653 </v>
   <v>       0.02444834      -0.32503248      -0.00082689 </v>
   <v>      -0.04232769      -0.22695471       0.00036448 </v>
   <v>      -0.03080250       0.33184537       0.00030607 </v>
   <v>      -0.02033407      -0.32566552      -0.00084423 </v>
   <v>       0.03888562       0.20954630      -0.00207714 </v>
   <v>      -0.04176282       0.21879908      -0.00210485 </v>
   <v>       0.03916167      -0.21781894       0.00036399 </v>
   <v>       0.03433352       0.33105055       0.00029305 </v>
   <v>       0.02437135      -0.32508929      -0.00082812 </v>
   <v>      -0.04219871      -0.22672099       0.00037804 </v>
   <v>      -0.03082094       0.33180960       0.00031216 </v>
   <v>      -0.02036565      -0.32584679      -0.00082037 </v>
   <v>       0.03876776       0.20948261      -0.00206835 </v>
   <v>      -0.04169615       0.21872757      -0.00208155 </v>
   <v>       0.03910981      -0.21786168       0.00036577 </v>
   <v>      -0.03091184       0.49275991       0.00033061 </v>
   <v>      -0.03122074      -0.47616505      -0.00090951 </v>
   <v>       0.04997480      -0.22638828       0.00035441 </v>
   <v>       0.04671839       0.33941060       0.00031544 </v>
   <v>       0.03692618      -0.33357133      -0.00081409 </v>
   <v>      -0.03298272       0.37166130      -0.00198761 </v>
   <v>       0.04953195       0.21830051      -0.00209335 </v>
   <v>      -0.03281169      -0.37535660       0.00035282 </v>
   <v>      -0.03081491       0.49281994       0.00032636 </v>
   <v>      -0.03108791      -0.47620148      -0.00092304 </v>
   <v>       0.04981309      -0.22645261       0.00036326 </v>
   <v>       0.04655107       0.33942404       0.00030695 </v>
   <v>       0.03690353      -0.33354682      -0.00079505 </v>
   <v>      -0.03296568       0.37166768      -0.00198018 </v>
   <v>       0.04964942       0.21839576      -0.00206171 </v>
   <v>      -0.03272449      -0.37535315       0.00034944 </v>
   <v>      -0.03965592       0.33138107      -0.00037842 </v>
   <v>      -0.04001876      -0.34396897       0.00085813 </v>
   <v>       0.03449768      -0.37810491      -0.00039612 </v>
   <v>       0.03373333       0.48178464      -0.00033712 </v>
   <v>       0.03417680      -0.48933294       0.00093636 </v>
   <v>      -0.05272332       0.22743202       0.00207926 </v>
   <v>       0.03469223       0.38500272       0.00201378 </v>
   <v>      -0.05039063      -0.21913615      -0.00036607 </v>
   <v>      -0.03967672       0.33137345      -0.00036514 </v>
   <v>      -0.04007300      -0.34398141       0.00085804 </v>
   <v>       0.03448813      -0.37813656      -0.00038539 </v>
   <v>       0.03373118       0.48174831      -0.00034659 </v>
   <v>       0.03420254      -0.48939495       0.00093893 </v>
   <v>      -0.05271051       0.22737065       0.00207849 </v>
   <v>       0.03462369       0.38500324       0.00200362 </v>
   <v>      -0.05033059      -0.21910986      -0.00036837 </v>
   <v>       0.02468893       0.31233546      -0.00036062 </v>
   <v>       0.02466958      -0.32468743       0.00086186 </v>
   <v>      -0.03950240      -0.21044644      -0.00038113 </v>
   <v>      -0.02029284       0.31296591      -0.00035133 </v>
   <v>      -0.02070855      -0.32545185       0.00086626 </v>
   <v>       0.03892005       0.20949044       0.00209865 </v>
   <v>      -0.04184490       0.21871884       0.00210190 </v>
   <v>       0.03667988      -0.20085977      -0.00037200 </v>
   <v>       0.02466918       0.31225758      -0.00035932 </v>
   <v>       0.02464049      -0.32473796       0.00087644 </v>
   <v>      -0.03946537      -0.21037591      -0.00038486 </v>
   <v>      -0.02023911       0.31291270      -0.00034812 </v>
   <v>      -0.02073675      -0.32553672       0.00086569 </v>
   <v>       0.03892878       0.20959143       0.00209788 </v>
   <v>      -0.04183412       0.21873922       0.00209779 </v>
   <v>       0.03665278      -0.20085090      -0.00037900 </v>
   <v>      -0.03143772       0.46914646      -0.00037707 </v>
   <v>      -0.03098215      -0.47672689       0.00096662 </v>
   <v>       0.04745189      -0.20973599      -0.00039557 </v>
   <v>       0.03728932       0.32078311      -0.00035220 </v>
   <v>       0.03716754      -0.33312942       0.00086322 </v>
   <v>      -0.03298053       0.37217496       0.00202149 </v>
   <v>       0.04969108       0.21835510       0.00212077 </v>
   <v>      -0.03309507      -0.36527044      -0.00036548 </v>
   <v>      -0.03143138       0.46913849      -0.00036292 </v>
   <v>      -0.03100178      -0.47671313       0.00095989 </v>
   <v>       0.04743674      -0.20979135      -0.00036914 </v>
   <v>       0.03722903       0.32070860      -0.00034695 </v>
   <v>       0.03715337      -0.33315834       0.00084841 </v>
   <v>      -0.03295916       0.37219633       0.00201132 </v>
   <v>       0.04964476       0.21837151       0.00209780 </v>
   <v>      -0.03311939      -0.36527499      -0.00037644 </v>
  </varray>
  <varray name="stress" >
   <v>      53.04161281       0.00023449      -0.00003128 </v>
   <v>       0.00027825     237.28890520       0.00073126 </v>
   <v>      -0.00002892       0.00069901    -178.63529281 </v>
  </varray>
  <energy>
   <i name="e_fr_energy">   -854.59290395</i>
   <i name="e_wo_entrp">   -854.54405498</i>
   <i name="e_0_energy">     -0.09769795</i>
  </energy>
 </calculation>
 <calculation>
  <scstep>
   <time name="diag">    1.27    1.27</time>
   <time name="diis">    3.38    3.38</time>
   <time name="orth">    0.36    0.36</time>
   <time name="total">    5.44    5.44</time>
   <energy>
    <i name="alphaZ">    611.69593841</i>
    <i name="ewald"> -11873.34963301</i>
    <i name="hartreedc">  -4155.82640749</i>
    <i name="XCdc">   1416.37052726</i>
    <i name="pawpsdc">   2787.91029713</i>
    <i name="pawaedc">  -2914.37473593</i>
    <i name="eentropy">     -0.00026665</i>
    <i name="bandstr">   -835.58863734</i>
    <i name="atom">  14102.14777378</i>
    <i name="e_fr_energy">   -861.01514384</i>
    <i name="e_wo_entrp">   -861.01487719</i>
    <i name="e_0_energy">   -861.01501051</i>
   </energy>
  </scstep>
  <scstep>
   <time name="diag">    1.27    1.27</time>
   <time name="diis">    3.38    3.38</time>
   <time name="orth">    0.36    0.36</time>
   <time name="total">    5.44    5.46</time>
   <energy>
    <i name="e_fr_energy">   -974.46367421</i>
    <i name="e_wo_entrp">   -974.36302651</i>
    <i name="e_0_energy">   -974.41335036</i>
   </energy>
  </scstep>
  <scstep>
   <time name="diag">    1.27    1.27</time>
   <time name="diis">    3.81    3.81</time>
   <time name="orth">    0.36    0.36</time>
   <time name="total">    5.87    5.88</time>
   <energy>
    <i name="e_fr_energy">  -2563.10890861</i>
    <i name="e_wo_entrp">  -2563.05066575</i>
    <i name="e_0_energy">  -2563.07978718</i>
   </energy>
  </scstep>
  <scstep>
   <time name="diag">    1.27    1.27</time>
   <time name="diis">    3.74    3.74</time>
   <time name="orth">    0.36    0.36</time>
   <time name="total">    5.81    5.82</time>
   <energy>
    <i name="e_fr_energy">  -1222.40052469</i>
    <i name="e_wo_entrp">  -1222.35980805</i>
    <i name="e_0_energy">  -1222.38016637</i>
   </energy>
  </scstep>
  <scstep>
   <time name="diag">    1.27    1.27</time>
   <time name="diis">    3.47    3.47</time>
   <time name="orth">    0.36    0.36</time>
   <time name="total">    5.54    5.58</time>
   <energy>
[...]
    <i name="e_0_energy">   -859.39719027</i>
   </energy>
  </scstep>
  <scstep>
   <time name="diag">    1.26    1.26</time>
   <time name="diis">    2.67    2.67</time>
   <time name="orth">    0.36    0.36</time>
   <time name="total">    4.74    4.74</time>
   <energy>
    <i name="e_fr_energy">   -859.42291860</i>
    <i name="e_wo_entrp">   -859.37662380</i>
    <i name="e_0_energy">   -859.39977120</i>
   </energy>
  </scstep>
  <scstep>
   <time name="diag">    1.26    1.26</time>
   <time name="diis">    2.24    2.24</time>
   <time name="orth">    0.36    0.36</time>
   <time name="total">    4.31    4.31</time>
   <energy>
    <i name="e_fr_energy">   -859.42742281</i>
    <i name="e_wo_entrp">   -859.37985077</i>
    <i name="e_0_energy">   -859.40363679</i>
   </energy>
  </scstep>
  <scstep>
   <time name="diag">    1.26    1.26</time>
   <time name="diis">    2.40    2.40</time>
   <time name="orth">    0.36    0.36</time>
   <time name="total">    4.46    4.47</time>
   <energy>
    <i name="e_fr_energy">   -859.42706470</i>
    <i name="e_wo_entrp">   -859.38185241</i>
    <i name="e_0_energy">   -859.40445855</i>
   </energy>
  </scstep>
  <scstep>
   <time name="diag">    1.27    1.27</time>
   <time name="diis">    3.40    3.41</time>
   <time name="orth">    0.36    0.36</time>
   <time name="total">    5.48    5.49</time>
   <energy>
    <i name="e_fr_energy">   -859.34625666</i>
    <i name="e_wo_entrp">   -859.31945059</i>
    <i name="e_0_energy">   -859.33285362</i>
   </energy>
  </scstep>
  <scstep>
   <time name="diag">    1.27    1.27</time>
   <time name="diis">    3.41    3.41</time>
   <time name="orth">    0.36    0.36</time>
   <time name="total">    5.48    5.49</time>
   <energy>
    <i name="e_fr_energy">   -859.37047045</i>
    <i name="e_wo_entrp">   -859.33633882</i>
    <i name="e_0_energy">   -859.35340463</i>
   </energy>
  </scstep>
  <scstep>
   <time name="diag">    1.27    1.27</time>
   <time name="diis">    2.57    2.58</time>
   <time name="orth">    0.36    0.36</time>
   <time name="total">    4.65    4.76</time>
   <energy>
    <i name="e_fr_energy">   -859.36286921</i>
    <i name="e_wo_entrp">   -859.32936854</i>
    <i name="e_0_energy">   -859.34611887</i>
   </energy>
  </scstep>
  <scstep>
   <time name="diag">    1.26    1.26</time>
   <time name="diis">    2.18    2.18</time>
   <time name="orth">    0.36    0.36</time>
   <time name="total">    4.25    4.26</time>
   <energy>
    <i name="e_fr_energy">   -859.35940508</i>
    <i name="e_wo_entrp">   -859.32659021</i>
    <i name="e_0_energy">   -859.34299765</i>
   </energy>
  </scstep>
  <scstep>
   <time name="diag">    1.26    1.26</time>
   <time name="diis">    3.39    3.39</time>
   <time name="orth">    0.36    0.36</time>
   <time name="total">    5.46    5.46</time>
   <energy>
    <i name="e_fr_energy">   -859.35776271</i>
    <i name="e_wo_entrp">   -859.32383649</i>
    <i name="e_0_energy">   -859.34079960</i>
   </energy>
  </scstep>
  <scstep>
   <time name="diag">    1.26    1.26</time>
   <time name="diis">    2.83    2.83</time>
   <time name="orth">    0.36    0.36</time>
   <time name="total">    4.90    4.91</time>
   <energy>
    <i name="e_fr_energy">   -859.35594637</i>
    <i name="e_wo_entrp">   -859.32153403</i>
    <i name="e_0_energy">   -859.33874020</i>
   </energy>
  </scstep>
  <scstep>
   <time name="diag">    1.26    1.27</time>
   <time name="diis">    2.47    2.47</time>
   <time name="orth">    0.36    0.36</time>
   <time name="total">    4.55    4.55</time>
   <energy>
    <i name="e_fr_energy">   -859.36196887</i>
    <i name="e_wo_entrp">   -859.32531775</i>
    <i name="e_0_energy">   -859.34364331</i>
   </energy>
  </scstep>
  <scstep>
   <time name="diag">    1.27    1.27</time>
   <time name="diis">    2.79    2.79</time>
   <time name="orth">    0.36    0.36</time>
   <time name="total">    4.86    4.87</time>
   <energy>
    <i name="e_fr_energy">   -859.34938075</i>
    <i name="e_wo_entrp">   -859.31429638</i>
    <i name="e_0_energy">   -859.33183856</i>
   </energy>
  </scstep>
  <scstep>
   <time name="diag">    1.27    1.27</time>
   <time name="diis">    2.70    2.70</time>
   <time name="orth">    0.36    0.36</time>
   <time name="total">    4.77    4.78</time>
   <energy>
    <i name="e_fr_energy">   -859.34659090</i>
    <i name="e_wo_entrp">   -859.31184357</i>
    <i name="e_0_energy">   -859.32921724</i>
   </energy>
  </scstep>
  <scstep>
   <time name="diag">    1.26    1.26</time>
   <time name="diis">    2.42    2.42</time>
   <time name="orth">    0.36    0.36</time>
   <time name="total">    4.49    4.58</time>
   <energy>
    <i name="e_fr_energy">   -859.34552241</i>
    <i name="e_wo_entrp">   -859.31040027</i>
    <i name="e_0_energy">   -859.32796134</i>
   </energy>
  </scstep>
  <scstep>
   <time name="diag">    1.26    1.26</time>
   <time name="diis">    2.37    2.38</time>
   <time name="orth">    0.36    0.36</time>
   <time name="total">    4.45    4.48</time>
   <energy>
    <i name="e_fr_energy">   -859.34828469</i>
    <i name="e_wo_entrp">   -859.31196988</i>
    <i name="e_0_energy">   -859.33012728</i>
   </energy>
  </scstep>
  <scstep>
   <time name="diag">    1.26    1.26</time>
   <time name="diis">    3.08    3.08</time>
   <time name="orth">    0.36    0.36</time>
   <time name="total">    5.15    5.15</time>
   <energy>
    <i name="e_fr_energy">   -859.33500551</i>
    <i name="e_wo_entrp">   -859.30059324</i>
    <i name="e_0_energy">   -859.31779937</i>
   </energy>
  </scstep>
  <scstep>
   <time name="diag">    1.26    1.26</time>
   <time name="diis">    2.19    2.19</time>
   <time name="orth">    0.36    0.36</time>
   <time name="total">    4.25    4.26</time>
   <energy>
    <i name="e_fr_energy">   -859.33420645</i>
    <i name="e_wo_entrp">   -859.29980656</i>
    <i name="e_0_energy">   -859.31700650</i>
   </energy>
  </scstep>
  <scstep>
   <time name="diag">    1.27    1.27</time>
   <time name="diis">    2.17    2.17</time>
   <time name="orth">    0.36    0.36</time>
   <time name="total">    3.87    3.88</time>
   <energy>
    <i name="alphaZ">    614.81635255</i>
    <i name="ewald"> -12274.72782958</i>
    <i name="hartreedc">  -3613.36065280</i>
    <i name="XCdc">   1395.33525898</i>
    <i name="pawpsdc">   2683.02549203</i>
    <i name="pawaedc">  -2808.44668119</i>
    <i name="eentropy">     -0.03454382</i>
    <i name="bandstr">   -958.08960166</i>
    <i name="atom">  14102.14777378</i>
    <i name="e_fr_energy">   -859.33443170</i>
    <i name="e_wo_entrp">   -859.29988789</i>
    <i name="e_0_energy">   -859.31715980</i>
   </energy>
  </scstep>
  <structure>
   <crystal>
    <varray name="basis" >
     <v>       7.19632701      -0.00000803      -0.00000018 </v>
     <v>      -0.00000954       8.61631642       0.00000094 </v>
     <v>      -0.00000030       0.00000141      12.28407446 </v>
    </varray>
    <i name="volume">    761.68423924</i>
    <varray name="rec_basis" >
     <v>       0.13895978       0.00000015       0.00000000 </v>
     <v>       0.00000013       0.11605888      -0.00000001 </v>
     <v>       0.00000000      -0.00000001       0.08140621 </v>
    </varray>
   </crystal>
   <varray name="positions" >
    <v>       0.33362792       0.50222339       0.25000022 </v>
    <v>       0.33363682       0.49777990       0.49999954 </v>
    <v>       0.50030025       0.58164865       0.25000030 </v>
    <v>       0.50030083       0.75252521       0.25000029 </v>
    <v>       0.50030065       0.74749237       0.49999916 </v>
    <v>       0.33354274       0.66813536       0.49999723 </v>
    <v>       0.50029974       0.91835729       0.49999709 </v>
    <v>       0.33354702       0.83186643       0.25000024 </v>
    <v>       0.33362735       0.00222598       0.25000033 </v>
    <v>       0.33363675      -0.00222017       0.49999934 </v>
    <v>       0.50030014       0.08164781       0.25000037 </v>
    <v>       0.50030100       0.25252383       0.25000036 </v>
    <v>       0.50030076       0.24749195       0.49999905 </v>
    <v>       0.33354273       0.16813510       0.49999692 </v>
    <v>       0.50029968       0.41835702       0.49999723 </v>
    <v>       0.33354814       0.33186331       0.25000024 </v>
    <v>       0.66689207       0.50218606       0.25000025 </v>
    <v>       0.66688247       0.49781680       0.49999947 </v>
    <v>       0.83360092       0.58190858       0.25000017 </v>
    <v>       0.83361127       0.75219148       0.25000022 </v>
    <v>       0.83362023       0.74781442       0.49999946 </v>
    <v>       0.66688214       0.66811439       0.49999722 </v>
    <v>       0.83358166       0.91810228       0.49999695 </v>
    <v>       0.66687764       0.83188744       0.25000026 </v>
    <v>       0.66689148       0.00218799       0.25000034 </v>
    <v>       0.66688239      -0.00218317       0.49999938 </v>
    <v>       0.83359901       0.08190712       0.25000032 </v>
    <v>       0.83360948       0.25218891       0.25000035 </v>
    <v>       0.83362031       0.24781372       0.49999938 </v>
    <v>       0.66688211       0.16811389       0.49999702 </v>
    <v>       0.83358172       0.41810160       0.49999707 </v>
    <v>       0.66687684       0.33188431       0.25000034 </v>
    <v>       0.00016851       0.50250416       0.25000022 </v>
    <v>       0.00016865       0.49751133       0.49999906 </v>
    <v>       0.16682314       0.58187153       0.25000021 </v>
    <v>       0.16685360       0.75221287       0.25000028 </v>
    <v>       0.16684508       0.74779246       0.49999957 </v>
    <v>       0.00017257       0.66834201       0.49999731 </v>
    <v>       0.16682829       0.91812896       0.49999704 </v>
    <v>       0.00017199       0.83166479       0.25000023 </v>
    <v>       0.00016903       0.00250613       0.25000031 </v>
    <v>       0.00016886      -0.00248851       0.49999899 </v>
    <v>       0.16682440       0.08187108       0.25000026 </v>
    <v>       0.16685461       0.25221119       0.25000029 </v>
    <v>       0.16684505       0.24779230       0.49999939 </v>
    <v>       0.00017265       0.16834175       0.49999716 </v>
    <v>       0.16682844       0.41812885       0.49999715 </v>
    <v>       0.00017172       0.33166225       0.25000031 </v>
    <v>       0.33363436       0.50220755       0.74999944 </v>
    <v>       0.33363654       0.49778018       0.00000059 </v>
    <v>       0.50029963       0.58163865       0.74999948 </v>
    <v>       0.50030049       0.75250248       0.74999952 </v>
    <v>       0.50030087       0.74749219       0.00000110 </v>
    <v>       0.33354174       0.66813518       0.00000315 </v>
    <v>       0.50029974       0.91835867       0.00000310 </v>
    <v>       0.33354336       0.83186304       0.74999957 </v>
    <v>       0.33363448       0.00220758       0.74999953 </v>
    <v>       0.33363634      -0.00221976       0.00000080 </v>
    <v>       0.50029974       0.08163865       0.74999947 </v>
    <v>       0.50030049       0.25250247       0.74999952 </v>
    <v>       0.50030086       0.24749204       0.00000115 </v>
    <v>       0.33354163       0.16813494       0.00000317 </v>
    <v>       0.50029975       0.41835837       0.00000290 </v>
    <v>       0.33354347       0.33186313       0.74999956 </v>
    <v>       0.66688472       0.50217063       0.74999949 </v>
    <v>       0.66688262       0.49781736       0.00000075 </v>
    <v>       0.83358244       0.58189650       0.74999945 </v>
    <v>       0.83361817       0.75217346       0.74999951 </v>
    <v>       0.83362006       0.74781477       0.00000078 </v>
    <v>       0.66688312       0.66811397       0.00000314 </v>
    <v>       0.83358060       0.91810189       0.00000326 </v>
    <v>       0.66688108       0.83188482       0.74999946 </v>
    <v>       0.66688473       0.00217061       0.74999947 </v>
    <v>       0.66688255      -0.00218268       0.00000078 </v>
    <v>       0.83358249       0.08189655       0.74999949 </v>
    <v>       0.83361824       0.25217331       0.74999954 </v>
    <v>       0.83362007       0.24781445       0.00000077 </v>
    <v>       0.66688307       0.16811382       0.00000324 </v>
    <v>       0.83358065       0.41810154       0.00000314 </v>
    <v>       0.66688120       0.33188475       0.74999949 </v>
    <v>       0.00016859       0.50248323       0.74999956 </v>
    <v>       0.00016888       0.49751134       0.00000109 </v>
    <v>       0.16682739       0.58187000       0.74999940 </v>
    <v>       0.16684736       0.75219493       0.74999947 </v>
    <v>       0.16684519       0.74779319       0.00000074 </v>
    <v>       0.00017265       0.66834345       0.00000303 </v>
    <v>       0.16682925       0.91812886       0.00000328 </v>
    <v>       0.00017283       0.83165386       0.74999949 </v>
    <v>       0.00016861       0.00248319       0.74999954 </v>
    <v>       0.00016878      -0.00248859       0.00000118 </v>
    <v>       0.16682746       0.08186987       0.74999950 </v>
    <v>       0.16684740       0.25219485       0.74999964 </v>
    <v>       0.16684496       0.24779287       0.00000072 </v>
    <v>       0.00017256       0.16834316       0.00000302 </v>
    <v>       0.16682929       0.41812845       0.00000306 </v>
    <v>       0.00017275       0.33165385       0.74999958 </v>
   </varray>
  </structure>
  <varray name="forces" >
   <v>      -0.04608171      -0.37371611      -0.01278390 </v>
   <v>      -0.02480347       0.21955076      -0.00145452 </v>
   <v>      -0.00429737       0.53478633       0.01228077 </v>
   <v>      -0.02134799      -0.35688778      -0.01104904 </v>
   <v>      -0.02172720       0.26877985      -0.00107111 </v>
   <v>       0.03753255      -0.40652716      -0.03036213 </v>
   <v>      -0.00822132      -0.45299596      -0.02892917 </v>
   <v>       0.01436295       0.54907899       0.01228759 </v>
   <v>      -0.05192207      -0.36654739      -0.01154323 </v>
   <v>      -0.02445066       0.21778741      -0.00124565 </v>
   <v>      -0.00282650       0.53393214       0.01278276 </v>
   <v>      -0.02384409      -0.34859241      -0.01115108 </v>
   <v>      -0.02190761       0.26839048      -0.00120357 </v>
   <v>       0.03736287      -0.40643098      -0.03068900 </v>
   <v>      -0.00814057      -0.45414272      -0.02936474 </v>
   <v>      -0.00178455       0.58227220       0.01286031 </v>
   <v>       0.03418355      -0.37746482      -0.01197063 </v>
   <v>       0.02806628       0.21356690      -0.00144250 </v>
   <v>      -0.01604307       0.54748488       0.01211144 </v>
   <v>      -0.04321907      -0.36960680      -0.01198683 </v>
   <v>      -0.02203809       0.21168976      -0.00091642 </v>
   <v>      -0.03535627      -0.37489204      -0.02983149 </v>
   <v>       0.00285303      -0.39657319      -0.02946274 </v>
   <v>      -0.01916579       0.53041057       0.01205978 </v>
   <v>       0.04242774      -0.37134306      -0.01144274 </v>
   <v>       0.02733166       0.21193374      -0.00106619 </v>
   <v>      -0.02114391       0.55860186       0.01263816 </v>
   <v>      -0.02519440      -0.35382210      -0.01214849 </v>
   <v>      -0.02257227       0.21191262      -0.00136208 </v>
   <v>      -0.03566896      -0.37501819      -0.03006634 </v>
   <v>       0.00306255      -0.39667057      -0.03008009 </v>
   <v>      -0.00765235       0.56345011       0.01245927 </v>
   <v>       0.04237582      -0.34847568      -0.01155425 </v>
   <v>       0.02533324       0.25738921      -0.00119965 </v>
   <v>      -0.00036283       0.54781259       0.01206884 </v>
   <v>       0.03085422      -0.39879593      -0.01186646 </v>
   <v>       0.01153458       0.21993274      -0.00107297 </v>
   <v>       0.02193825      -0.44678597      -0.02908856 </v>
   <v>      -0.01362710      -0.37827634      -0.03029073 </v>
   <v>       0.03310550       0.51479207       0.01236469 </v>
   <v>       0.03828383      -0.32576711      -0.01067970 </v>
   <v>       0.02553732       0.25560493      -0.00096987 </v>
   <v>       0.00431723       0.56529228       0.01312749 </v>
   <v>       0.01653805      -0.37719894      -0.01131827 </v>
   <v>       0.01233971       0.21979428      -0.00145098 </v>
   <v>       0.02232115      -0.44656633      -0.03002841 </v>
   <v>      -0.01396993      -0.37864112      -0.03098687 </v>
   <v>       0.03661770       0.53691985       0.01212774 </v>
   <v>      -0.02864361      -0.23412177      -0.01047560 </v>
   <v>      -0.02464932       0.27437637       0.02388566 </v>
   <v>      -0.00575760       0.46016060      -0.00494047 </v>
   <v>      -0.02014572      -0.28589810      -0.01071507 </v>
   <v>      -0.02334202       0.31148540       0.02346669 </v>
   <v>       0.03581830      -0.46280553       0.02232938 </v>
   <v>      -0.01118493      -0.49972786       0.02182199 </v>
   <v>       0.02668795       0.42201537      -0.00427332 </v>
   <v>      -0.02869622      -0.23250855      -0.01050789 </v>
   <v>      -0.02952765       0.27279284       0.02343063 </v>
   <v>      -0.00584103       0.46109086      -0.00512276 </v>
   <v>      -0.02057450      -0.28604883      -0.01096653 </v>
   <v>      -0.02312869       0.31286283       0.02428368 </v>
   <v>       0.03495554      -0.46343096       0.02384643 </v>
   <v>      -0.00742855      -0.49902578       0.02247958 </v>
   <v>       0.02642697       0.42119814      -0.00462619 </v>
   <v>       0.03039020      -0.22459064      -0.01052031 </v>
   <v>       0.02869496       0.26694758       0.02504440 </v>
   <v>      -0.00804785       0.41054238      -0.00453322 </v>
   <v>      -0.02638346      -0.22589093      -0.01043570 </v>
   <v>      -0.02445229       0.26625496       0.02409985 </v>
   <v>      -0.03876130      -0.43128170       0.01618811 </v>
   <v>       0.00273731      -0.45446331       0.02268735 </v>
   <v>      -0.02637425       0.38687356      -0.00424100 </v>
   <v>       0.03105613      -0.22272423      -0.01051146 </v>
   <v>       0.03184069       0.26871663       0.02421743 </v>
   <v>      -0.00882228       0.41242201      -0.00478427 </v>
   <v>      -0.02741326      -0.22842005      -0.01074625 </v>
   <v>      -0.02477370       0.26587415       0.02459826 </v>
   <v>      -0.03725424      -0.43022432       0.01619740 </v>
   <v>       0.00138190      -0.45488721       0.02330447 </v>
   <v>      -0.02648809       0.38760590      -0.00451656 </v>
   <v>       0.02700387      -0.27382814      -0.01092332 </v>
   <v>       0.02275193       0.30272874       0.02361895 </v>
   <v>      -0.00559681       0.38818270      -0.00412338 </v>
   <v>       0.01287507      -0.22881116      -0.01014501 </v>
   <v>       0.01244729       0.27410194       0.02295373 </v>
   <v>       0.02303129      -0.49172029       0.02173440 </v>
   <v>      -0.00928541      -0.43484307       0.02282477 </v>
   <v>       0.02453242       0.45415627      -0.00491940 </v>
   <v>       0.02642310      -0.27338737      -0.01099117 </v>
   <v>       0.02454362       0.30054718       0.02329732 </v>
   <v>      -0.00472692       0.39265193      -0.00452211 </v>
   <v>       0.01427078      -0.23281790      -0.01067223 </v>
   <v>       0.01319159       0.27287157       0.02433395 </v>
   <v>       0.02165409      -0.49084021       0.02311223 </v>
   <v>      -0.01133472      -0.43690529       0.02347152 </v>
   <v>       0.02500883       0.45331546      -0.00505337 </v>
  </varray>
  <varray name="stress" >
   <v>      19.02741853       0.00531031       0.01719722 </v>
   <v>       0.00542318    -117.48792281       0.71194869 </v>
   <v>       0.01721846       0.71197224     -74.23755167 </v>
  </varray>
  <energy>
   <i name="e_fr_energy">   -859.33443170</i>
   <i name="e_wo_entrp">   -859.31715980</i>
   <i name="e_0_energy">     -0.03454382</i>
  </energy>
 </calculation>
